<LesHouchesEvents version="1.0">
<header>
<!-- individually designed XML tags, in fancy XML style -->
</header>
<init>
2212 2212 0.35000000E+04 0.35000000E+04 3 3 41 41 1  30
  0.5662352036234831E+01  0.3834280799948327E-01  0.1123051997247097E+03   1
  0.2700715673401180E+01  0.2862287630241791E-01  0.1270489848142176E+03   2
  0.1778666384290367E+00  0.7734826533986835E-02  0.3147239245984376E+02   3
  0.9546441996498899E-01  0.5673553873565775E-02  0.2417837530453744E+02   4
  0.6127178573119166E-01  0.4548514444149481E-02  0.2401515482509494E+02   5
  0.1854646294499974E+00  0.7979066617932578E-02  0.8034268596702968E+02   6
  0.2130059737067000E+00  0.8512149352206330E-02  0.6267143723931660E+02   7
  0.1696618015153804E+00  0.7578560412306383E-02  0.4789580592924887E+02   8
  0.1137663802687887E+00  0.6261208479276182E-02  0.6335112908224807E+02   9
  0.1150140451349957E+00  0.6363817894154328E-02  0.8695638577496062E+02  10
  0.2703411152873960E+00  0.9728636082990471E-02  0.1275614629486110E+03  11
  0.2340266899156293E+00  0.9748997733287612E-02  0.2922048301376099E+03  12
  0.1881056572312115E+00  0.7965587234733834E-02  0.3894074389292212E+02  13
  0.8700690614255678E-01  0.5417545706171226E-02  0.2456430034092955E+02  14
  0.5708175410951617E-01  0.4432598410711825E-02  0.5371391207928862E+02  15
  0.1697015286448849E+00  0.7568419808843592E-02  0.4245504010234525E+02  16
  0.1977382601637794E+00  0.8228626760101880E-02  0.8430846583702122E+02  17
  0.1864859020444150E+00  0.8027757152221026E-02  0.6701205157792633E+02  18
  0.1173660359850765E+00  0.7914080822482383E-02  0.3531499229217372E+03  19
  0.1054637014751735E+00  0.5970061298075606E-02  0.3710791427228942E+02  20
  0.4134615979016090E+00  0.1173855685592979E-01  0.4052423990002523E+02  21
  0.3670585212605924E+00  0.1106343344470275E-01  0.2811868596751192E+02  22
  0.2742194347665285E+00  0.9580013054309633E-02  0.2541488770555140E+02  23
  0.1137630545648342E+00  0.6210605953664620E-02  0.4867456198745317E+02  24
  0.5454870301192973E-01  0.4294447959742539E-02  0.2736931705711654E+02  25
  0.7598392429713340E+01  0.4195519441856017E-01  0.6790898548316869E+02  26
  0.3702868981104871E+01  0.3258087741299587E-01  0.5766953458223050E+02  27
  0.2777874014573134E+00  0.9933297567837410E-02  0.1794276222666300E+03  28
  0.1023137707181025E+00  0.5875552917487453E-02  0.2978191993001384E+02  29
  0.5181579858175091E-01  0.4184629041090978E-02  0.2561284957213196E+02  30
</init>
<event>
  5   2  0.2401515482509494E+02  0.9547123838504579E+02  0.7546888109483510E-02  0.1171884529598475E+00
   1 -1 0 0 502   0 -0.1082956792712119E+01  0.5560444033120302E-01  0.1052787073744752E+04  0.1052787073744752E+04  0.1084383358718616E+01 0.  9
  21 -1 0 0 501 502  0.3003617793496238E+02  0.1631999307862209E+02 -0.5254778185030103E+01  0.5254778185030103E+01  0.3418353637391828E+02 0.  9
 -13 +1 1 2   0   0 -0.1622314950981919E+02 -0.2257100756858111E+02  0.1457243798707182E+03  0.1483517301934301E+03  0.0000000000000000E+00 0.  1
  13 +1 1 2   0   0  0.2099133746533798E+02  0.5359425709360487E+02  0.8370737062759183E+03  0.8390502788155794E+03  0.0000000000000000E+00 0. -1
   1 +1 1 2 501   0  0.2418503318673147E+02 -0.1464765200607047E+02  0.6473420941308586E+02  0.7063984292077309E+02  0.0000000000000000E+00 0. -1
   #pdf1pdf2  0.6337940626572835E-04
</event>
<event>
  5  26  0.2401515482509494E+02  0.9345526049973539E+02  0.7546888109483510E-02  0.1175642070966202E+00
   2 -1 0 0 501   0 -0.1340161451883335E+01 -0.1766601005407762E+00  0.9519488979458322E+03  0.9519488979458322E+03  0.1351754973446418E+01 0.  9
  -2 -1 0 0   0 502  0.5377443983108138E-01  0.7487249055762150E+00 -0.3486618198619304E+01  0.3486618198619304E+01  0.7506534983660961E+00 0.  9
 -13 +1 1 2   0   0  0.6595308511402923E+01  0.1676130448188852E+02  0.7488946331521402E+03  0.7491112140305829E+03  0.0000000000000000E+00 0. -1
  13 +1 1 2   0   0  0.6078575332162414E+01 -0.3114613552696839E+02  0.1129598988172220E+03  0.1173327302040232E+03  0.0000000000000000E+00 0.  1
  21 +1 1 2 501 502 -0.1396027085561759E+02  0.1495689585011531E+02  0.8660774777785070E+02  0.8899157190984552E+02  0.0000000000000000E+00 0.  1
   #pdf1pdf2  0.2844658941666373E-02
</event>
<event>
  5  27  0.2401515482509494E+02  0.9206931774816549E+02  0.7546888109483510E-02  0.1178287441539253E+00
   1 -1 0 0 501   0 -0.2450884445375505E+00  0.6533102952548583E+00  0.3479409491606144E+03  0.3479409491606144E+03  0.6977697955141267E+00 0.  9
  -1 -1 0 0   0 502  0.4288337634558554E+01  0.2945492415541822E+01 -0.7765346163533551E+01  0.7765346163533551E+01  0.5202476836852390E+01 0.  9
 -13 +1 1 2   0   0 -0.4185007624963833E+02 -0.1488991800912950E+02  0.9466209135151901E+02  0.1045660082410267E+03  0.0000000000000000E+00 0.  1
  13 +1 1 2   0   0  0.3546871186470917E+02  0.1122243671875827E+02  0.2131385984671425E+03  0.2163608900975083E+03  0.0000000000000000E+00 0. -1
  21 +1 1 2 501 502  0.1042461357495016E+02  0.7266284001167911E+01  0.3237491317841938E+02  0.3477939698561286E+02  0.0000000000000000E+00 0. -1
   #pdf1pdf2  0.3374137295705986E-03
</event>
<event>
  5   2  0.2401515482509494E+02  0.9329411224464789E+02  0.7546888109483510E-02  0.1175947010015721E+00
   1 -1 0 0 502   0 -0.1544913025267038E+01  0.6870193050144120E+01  0.1066087779484100E+04  0.1066087779484100E+04  0.7041754667828774E+01 0.  9
  21 -1 0 0 501 502  0.1469812179481514E+02  0.1066538866343242E+02 -0.3664188863882494E+01  0.3664188863882494E+01  0.1815999173009979E+02 0.  9
 -13 +1 1 2   0   0  0.3498993088054209E+02  0.5654665674475375E+02  0.6223264975153170E+03  0.6258690671072633E+03  0.0000000000000000E+00 0.  1
  13 +1 1 2   0   0 -0.2632581040446165E+02 -0.1981858570408849E+02  0.3553180263103631E+03  0.3568427166888149E+03  0.0000000000000000E+00 0. -1
   1 +1 1 2 501   0  0.4489088293467656E+01 -0.1919248932708872E+02  0.8477906679453702E+02  0.8704018455190413E+02  0.0000000000000000E+00 0. -1
   #pdf1pdf2  0.3678649795528309E-05
</event>
<event>
  5   2  0.2401515482509494E+02  0.9657507301782317E+02  0.7546888109483510E-02  0.1169870890291091E+00
   1 -1 0 0 502   0 -0.2510972809065608E+00 -0.1596759629735856E+01  0.9189611824119171E+03  0.9189611824119171E+03  0.1616382120549734E+01 0.  9
  21 -1 0 0 501 502 -0.6190617171119432E+01  0.3489087887758814E+01 -0.5009963987281687E+01  0.5009963987281687E+01  0.7106157558615205E+01 0.  9
 -13 +1 1 2   0   0  0.6096585687785206E+01  0.2903962975052642E+02  0.1178911962382417E+03  0.1215680986261601E+03  0.0000000000000000E+00 0.  1
  13 +1 1 2   0   0 -0.3886751829024866E+02 -0.4498628074425871E+02  0.6601483654587935E+03  0.6628199709205817E+03  0.0000000000000000E+00 0. -1
   1 +1 1 2 501   0  0.2632921815043746E+02  0.1783897925175525E+02  0.1359116567276002E+03  0.1395830768524570E+03  0.0000000000000000E+00 0. -1
   #pdf1pdf2  0.7833414151088014E-03
</event>
<event>
  5  26  0.2401515482509494E+02  0.9222123223847065E+02  0.7546888109483510E-02  0.1177994943620655E+00
   2 -1 0 0 501   0  0.3813173047533172E+00  0.5396197077329541E+00  0.2061930076204944E+04  0.2061930076204944E+04  0.6607513268076978E+00 0.  9
  -2 -1 0 0   0 502  0.3834215808954279E+00  0.1181615358560441E+02 -0.1392558038250780E+01  0.1392558038250780E+01  0.1182237275961506E+02 0.  9
 -13 +1 1 2   0   0  0.4238897203007193E+01  0.4444989940503029E+02  0.5143237505742082E+03  0.5162583483212018E+03  0.0000000000000000E+00 0.  1
  13 +1 1 2   0   0  0.1023518488169942E+02 -0.3332772466567411E+02  0.1298860099044429E+04  0.1299327923632313E+04  0.0000000000000000E+00 0. -1
  21 +1 1 2 501 502 -0.1370934319905787E+02  0.1233598553981187E+01  0.2473536685480560E+03  0.2477363622896798E+03  0.0000000000000000E+00 0.  1
   #pdf1pdf2  0.4586838941577625E-04
</event>
<event>
  5   2  0.2401515482509494E+02  0.9175338033591426E+02  0.7546888109483510E-02  0.1178897778931522E+00
   1 -1 0 0 502   0  0.5062403604583581E+00 -0.1540486344056388E+01  0.1218314852025253E+04  0.1218314852025253E+04  0.1621535531149788E+01 0.  9
  21 -1 0 0 501 502  0.3880168048177908E+01  0.8626409167298302E+01 -0.2268985606126699E+01  0.2268985606126699E+01  0.9458892070625870E+01 0.  9
 -13 +1 1 2   0   0  0.6375293373447644E+01  0.2625145918834573E+02  0.1017232175965589E+04  0.1017590823118410E+04  0.0000000000000000E+00 0. -1
  13 +1 1 2   0   0  0.6355104467792168E+01 -0.2497697544467270E+02  0.8752305068984765E+02  0.9123881332644554E+02  0.0000000000000000E+00 0.  1
   1 +1 1 2 501   0 -0.8343989432603546E+01  0.5811439079568884E+01  0.1112906397636887E+03  0.1117542011865239E+03  0.0000000000000000E+00 0. -1
   #pdf1pdf2  0.4942831949954570E-03
</event>
<event>
  5   1  0.2401515482509494E+02  0.9316095705948689E+02  0.7546888109483510E-02  0.1176199499015376E+00
   2 -1 0 0 502   0  0.5430405174265985E+01  0.4836458467503693E+01  0.6829449987573462E+03  0.6829449987573462E+03  0.7271906962041178E+01 0.  9
  21 -1 0 0 501 502  0.9922796469124735E+01  0.7156383123234703E+01 -0.5207006079926092E+01  0.5207006079926092E+01  0.1223420243310502E+02 0.  9
 -13 +1 1 2   0   0  0.1649942905534645E+02  0.3328488122144946E+02  0.4834199335982032E+03  0.4848452811744893E+03  0.0000000000000000E+00 0.  1
  13 +1 1 2   0   0  0.2506296946216583E+01 -0.4000928213094381E+02  0.1446928273057511E+03  0.1501433929773401E+03  0.0000000000000000E+00 0. -1
   2 +1 1 2 501   0 -0.3652524358172309E+01  0.1871724250023275E+02  0.4962523177346577E+02  0.5316333068544293E+02  0.0000000000000000E+00 0.  1
   #pdf1pdf2  0.3062972046202633E-04
</event>
<event>
  5  27  0.2401515482509494E+02  0.9338521099410356E+02  0.7546888109483510E-02  0.1175774540192141E+00
   1 -1 0 0 501   0  0.2415276761723990E+00 -0.1963011798388607E+00  0.7109159715072707E+03  0.7109159715072707E+03  0.3112390906736620E+00 0.  9
  -1 -1 0 0   0 502  0.3713012410621862E+01 -0.6114411596769210E+01 -0.5000099920709340E+01  0.5000099920709340E+01  0.7153494973517335E+01 0.  9
 -13 +1 1 2   0   0 -0.3942430081022828E+02  0.9630442712987804E+01  0.1892681512042446E+03  0.1935702817621969E+03  0.0000000000000000E+00 0.  1
  13 +1 1 2   0   0  0.4662146689908790E+02  0.3933330410270074E+01  0.4570381098410817E+03  0.4594266710924038E+03  0.0000000000000000E+00 0. -1
  21 +1 1 2 501 502 -0.3242626002065359E+01 -0.1987448589986595E+02  0.5960961054123504E+02  0.6291911857337927E+02  0.0000000000000000E+00 0. -1
   #pdf1pdf2  0.2675998789853317E-03
</event>
<event>
  5  26  0.2401515482509494E+02  0.9686705722336508E+02  0.7546888109483510E-02  0.1169343288596309E+00
   2 -1 0 0 501   0 -0.5495604055932846E+01  0.9899128235440309E+00  0.8339433635041610E+03  0.8339433635041610E+03  0.5584047934769405E+01 0.  9
  -2 -1 0 0   0 502 -0.2170340948642031E+02 -0.3146970413865921E+02 -0.5849408150502745E+01  0.5849408150502745E+01  0.3822800363490074E+02 0.  9
 -13 +1 1 2   0   0 -0.2024454228498951E+02  0.4111711779671987E+02  0.3552070341703845E+03  0.3581514986599369E+03  0.0000000000000000E+00 0. -1
  13 +1 1 2   0   0  0.1248661157593582E+02 -0.4532937679257303E+02  0.3852697103664719E+03  0.3881280943128396E+03  0.0000000000000000E+00 0.  1
  21 +1 1 2 501 502 -0.1944108283329947E+02 -0.2626753231926201E+02  0.8761721081680173E+02  0.9351317868188720E+02  0.0000000000000000E+00 0.  1
   #pdf1pdf2  0.1251167730417201E-06
</event>
<event>
  5  26  0.2401515482509494E+02  0.9271468946426111E+02  0.7546888109483510E-02  0.1177049170087807E+00
   2 -1 0 0 501   0 -0.3555651986813217E+00 -0.2159946026604473E+01  0.3599643578747305E+03  0.3599643578747305E+03  0.2189016548214685E+01 0.  9
  -2 -1 0 0   0 502 -0.2300919528355748E+01 -0.4690433207846704E+01 -0.8749471459605259E+01  0.8749471459605259E+01  0.5224403731837726E+01 0.  9
 -13 +1 1 2   0   0 -0.2881687396647252E+02  0.3088754050812534E+02  0.1262024322669711E+03  0.1330845832316429E+03  0.0000000000000000E+00 0.  1
  13 +1 1 2   0   0  0.1421872856700384E+02 -0.4949047536247778E+02  0.1447344642235272E+03  0.1536214325142739E+03  0.0000000000000000E+00 0. -1
  21 +1 1 2 501 502  0.1194166067243161E+02  0.1175255561990127E+02  0.8027798992462685E+02  0.8200781358841890E+02  0.0000000000000000E+00 0.  1
   #pdf1pdf2  0.1286128858340170E-03
</event>
<event>
  5   1  0.2401515482509494E+02  0.9424515737873843E+02  0.7546888109483510E-02  0.1174157256898928E+00
   2 -1 0 0 502   0 -0.3285579829672420E+00  0.3512070501426541E+01  0.1388232626318462E+04  0.1388232626318462E+04  0.3527405499111490E+01 0.  9
  21 -1 0 0 501 502  0.2509017354185314E+02  0.4740414379961366E+02 -0.2793726605319489E+01  0.2793726605319489E+01  0.5363459385261304E+02 0.  9
 -13 +1 1 2   0   0  0.1213550285545957E+02 -0.2396068138922957E+02  0.1205128979334067E+03  0.1234696045611985E+03  0.0000000000000000E+00 0.  1
  13 +1 1 2   0   0  0.1916883936576293E+02  0.5198465687609684E+02  0.1010968044489048E+04  0.1012485178129125E+04  0.0000000000000000E+00 0. -1
   2 +1 1 2 501   0 -0.6542726662336609E+01  0.2289223881417293E+02  0.2539579572906878E+03  0.2550715702334581E+03  0.0000000000000000E+00 0. -1
   #pdf1pdf2  0.3744638760679753E-05
</event>
<event>
  5   1  0.2401515482509494E+02  0.9379303210545416E+02  0.7546888109483510E-02  0.1175005138231545E+00
   2 -1 0 0 502   0 -0.2762504630697789E+01 -0.2829634207833863E+01  0.7861911321031707E+03  0.7861911321031707E+03  0.3954524191956637E+01 0.  9
  21 -1 0 0 501 502 -0.1952600819613544E+01 -0.9004426610480550E+01 -0.4661170751164160E+01  0.4661170751164160E+01  0.9213704387719726E+01 0.  9
 -13 +1 1 2   0   0 -0.7513738090063928E+01  0.3281818750420504E+02  0.2007502277631334E+03  0.2035537856147538E+03  0.0000000000000000E+00 0. -1
  13 +1 1 2   0   0 -0.5183459743436220E+01 -0.6510050627964128E+02  0.4368820894231702E+03  0.4417362383046384E+03  0.0000000000000000E+00 0.  1
   2 +1 1 2 501   0  0.7982092383188816E+01  0.2044825795712183E+02  0.1438976441657030E+03  0.1455622789349426E+03  0.0000000000000000E+00 0. -1
   #pdf1pdf2  0.2266013768296307E-03
</event>
<event>
  5  26  0.2401515482509494E+02  0.9294258490741366E+02  0.7546888109483510E-02  0.1176614601186478E+00
   2 -1 0 0 501   0 -0.1010761305030075E+01  0.1070734245793124E+01  0.9145892075603223E+03  0.9145892075603223E+03  0.1472450420510066E+01 0.  9
  -2 -1 0 0   0 502 -0.4643804803500258E+02 -0.1515935633152420E+01 -0.4032443983897003E+01  0.4032443983897003E+01  0.4646278474376098E+02 0.  9
 -13 +1 1 2   0   0  0.3252023408009848E+02 -0.3821074426347759E-01  0.2388712565106481E+03  0.2410747690482378E+03  0.0000000000000000E+00 0.  1
  13 +1 1 2   0   0 -0.6296346962048786E+02 -0.6224784879461262E+01  0.6106799257067918E+03  0.6139487911175478E+03  0.0000000000000000E+00 0. -1
  21 +1 1 2 501 502 -0.1700557379964327E+02  0.5817794236365444E+01  0.6100558135898541E+02  0.6359809137843359E+02  0.0000000000000000E+00 0. -1
   #pdf1pdf2  0.1534995762328460E-05
</event>
<event>
  5  26  0.2401515482509494E+02  0.9200359672657446E+02  0.7546888109483510E-02  0.1178414177378601E+00
   2 -1 0 0 501   0  0.4420927826967025E+00 -0.1303828356333101E+01  0.1387274042377129E+04  0.1387274042377129E+04  0.1376740502524274E+01 0.  9
  -2 -1 0 0   0 502  0.8252989892581308E+01  0.1030977418609815E+02 -0.2129899303914890E+01  0.2129899303914890E+01  0.1320618362493060E+02 0.  9
 -13 +1 1 2   0   0 -0.2986078446152692E+02  0.5259010207128746E+01  0.1392156987960430E+03  0.1424792420961279E+03  0.0000000000000000E+00 0.  1
  13 +1 1 2   0   0  0.3659561612902719E+02 -0.8316704266412446E+01  0.9075526525264919E+03  0.9083282577337278E+03  0.0000000000000000E+00 0. -1
  21 +1 1 2 501 502  0.1960251007777741E+01  0.1206363988904875E+02  0.3383757917506789E+03  0.3385964418511880E+03  0.0000000000000000E+00 0. -1
   #pdf1pdf2  0.3782638562372743E-04
</event>
<event>
  5  27  0.2401515482509494E+02  0.9199935358009917E+02  0.7546888109483510E-02  0.1178422363896690E+00
   1 -1 0 0 501   0 -0.2697195279506133E+01  0.2407078533281445E+00  0.2362540776544407E+04  0.2362540776544407E+04  0.2707914815211883E+01 0.  9
  -1 -1 0 0   0 502 -0.6270177158863020E+01  0.2391618311726610E+01 -0.1360420832240079E+01  0.1360420832240079E+01  0.6710809172708875E+01 0.  9
 -13 +1 1 2   0   0  0.2377471531637334E+02  0.4327516314528349E+01  0.1166018342821420E+03  0.1190796046507848E+03  0.0000000000000000E+00 0.  1
  13 +1 1 2   0   0 -0.2058705869064366E+02 -0.2616335288428925E+01  0.1493005318286438E+04  0.1493149541280934E+04  0.0000000000000000E+00 0. -1
  21 +1 1 2 501 502 -0.1215502906409883E+02  0.9211451389553307E+00  0.7515732031435869E+03  0.7516720514449286E+03  0.0000000000000000E+00 0.  1
   #pdf1pdf2  0.6638584842338704E-06
</event>
<event>
  5  27  0.2401515482509494E+02  0.9578785760762578E+02  0.7546888109483510E-02  0.1171303835935709E+00
   1 -1 0 0 501   0 -0.2981200842191780E+01  0.4497952392162414E+01  0.3698577181436181E+03  0.3698577181436181E+03  0.5396214801473767E+01 0.  9
  -1 -1 0 0   0 502 -0.3480615085966706E+02 -0.3582396829721643E+02 -0.1168197470369557E+02  0.1168197470369557E+02  0.4994822161224431E+02 0.  9
 -13 +1 1 2   0   0 -0.5018136718474710E+02 -0.1955483825555642E+02  0.1215443028087390E+03  0.1329420131372841E+03  0.0000000000000000E+00 0. -1
  13 +1 1 2   0   0  0.3963873227688163E+02 -0.2262250257477243E+02  0.1649932107171649E+03  0.1711892704056614E+03  0.0000000000000000E+00 0.  1
  21 +1 1 2 501 502 -0.2724471679399337E+02  0.1085132492527483E+02  0.7163822991401872E+02  0.7740840930436823E+02  0.0000000000000000E+00 0.  1
   #pdf1pdf2  0.3056757580762678E-07
</event>
<event>
  5   1  0.2401515482509494E+02  0.1113917829107120E+03  0.7546888109483510E-02  0.1145455925924242E+00
   2 -1 0 0 502   0  0.5088354109281957E+00 -0.2239063088509587E+00  0.9130384719925738E+03  0.9130384719925738E+03  0.5559204174679382E+00 0.  9
  21 -1 0 0 501 502 -0.9406060805221899E+00 -0.6686891133293996E+01 -0.9765618811724702E+01  0.9765618811724702E+01  0.6752721882858880E+01 0.  9
 -13 +1 1 2   0   0 -0.3006465481974762E+02 -0.2102392106517824E+01  0.9891981891998600E+02  0.1034090619682963E+03  0.0000000000000000E+00 0.  1
  13 +1 1 2   0   0  0.2719233241357673E+02  0.5912034553601347E+02  0.6355951352099429E+03  0.6389176896134069E+03  0.0000000000000000E+00 0. -1
   2 +1 1 2 501   0  0.2440551736576901E+01 -0.6392875087164060E+02  0.1687578990509202E+03  0.1804773392225954E+03  0.0000000000000000E+00 0. -1
   #pdf1pdf2  0.4437390177365405E-02
</event>
<event>
  5  26  0.2401515482509494E+02  0.9397849325566665E+02  0.7546888109483510E-02  0.1174656692174269E+00
   2 -1 0 0 501   0  0.1129000488113597E+01  0.4087908842019036E+00  0.1479493412960211E+04  0.1479493412960211E+04  0.1200729815223773E+01 0.  9
  -2 -1 0 0   0 502  0.2976357911649116E+02  0.1770381873642652E+02 -0.3753179593531753E+01  0.3753179593531753E+01  0.3463085098111040E+02 0.  9
 -13 +1 1 2   0   0  0.1528194376999604E+02  0.6659235690142297E+02  0.1148772127673811E+04  0.1150802103371075E+04  0.0000000000000000E+00 0. -1
  13 +1 1 2   0   0  0.1607017037812870E+02 -0.2575403049630795E+02  0.2590745739466408E+03  0.2608469960118773E+03  0.0000000000000000E+00 0.  1
  21 +1 1 2 501 502 -0.4595345435199896E+00 -0.2272571678448660E+02  0.6789353174622715E+02  0.7159749317079013E+02  0.0000000000000000E+00 0.  1
   #pdf1pdf2  0.2832551562191398E-05
</event>
<event>
  5   2  0.2401515482509494E+02  0.9178516372967340E+02  0.7546888109483510E-02  0.1178836254468995E+00
   1 -1 0 0 502   0  0.3635615962404488E+00  0.2466562051568390E+01  0.3382885077951772E+03  0.3382885077951772E+03  0.2493211861935958E+01 0.  9
  21 -1 0 0 501 502 -0.1113501737204129E+01 -0.9900601541138352E+01 -0.7963714316613705E+01  0.7963714316613705E+01  0.9963021479207386E+01 0.  9
 -13 +1 1 2   0   0  0.3348071875429351E+02  0.1321770022745070E+02  0.1883639271038373E+03  0.1917723524431679E+03  0.0000000000000000E+00 0. -1
  13 +1 1 2   0   0 -0.4014428837452336E+02 -0.2926901585422949E+02  0.1066345761078245E+03  0.1176400102000482E+03  0.0000000000000000E+00 0.  1
   1 +1 1 2 501   0  0.5913629479266167E+01  0.8617276137208833E+01  0.3532629026690159E+02  0.3683985946857481E+02  0.0000000000000000E+00 0. -1
   #pdf1pdf2  0.3206357552145053E-03
</event>
<event>
  5  26  0.2401515482509494E+02  0.9454472628799722E+02  0.7546888109483510E-02  0.1173598397709075E+00
   2 -1 0 0 501   0 -0.8655563888752449E+00  0.9082010469240335E+00  0.5906108364078157E+03  0.5906108364078157E+03  0.1254598343676838E+01 0.  9
  -2 -1 0 0   0 502 -0.2749837110313713E+02 -0.1953684343930603E+02 -0.6441633137399919E+01  0.6441633137399919E+01  0.3373201246439059E+02 0.  9
 -13 +1 1 2   0   0  0.1674686767568475E+01 -0.4205683257377257E+02  0.2682589460586775E+03  0.2715408696355306E+03  0.0000000000000000E+00 0. -1
  13 +1 1 2   0   0 -0.1018723660651324E+02  0.3857217429745470E+02  0.9284606284921199E+02  0.1010543606496530E+03  0.0000000000000000E+00 0.  1
  21 +1 1 2 501 502 -0.1985137765306762E+02 -0.1514398411606412E+02  0.2230641943625263E+03  0.2244572392600320E+03  0.0000000000000000E+00 0.  1
   #pdf1pdf2  0.4604499239614921E-05
</event>
<event>
  5   2  0.2401515482509494E+02  0.9274815079322308E+02  0.7546888109483510E-02  0.1176985275853558E+00
   1 -1 0 0 502   0 -0.3066396819184962E+01 -0.2572251060959855E+01  0.1327721445799349E+04  0.1327721445799349E+04  0.4002407397219423E+01 0.  9
  21 -1 0 0 501 502  0.1692235634171781E+02 -0.8206433619685372E+01 -0.2589611716015150E+01  0.2589611716015150E+01  0.1880722459350075E+02 0.  9
 -13 +1 1 2   0   0  0.2964997737160922E+01  0.4937420664541288E+02  0.4795641873526387E+03  0.4821083003689545E+03  0.0000000000000000E+00 0. -1
  13 +1 1 2   0   0  0.2980202920504383E+01 -0.4517452190531116E+02  0.7297456125784007E+03  0.7311486019382422E+03  0.0000000000000000E+00 0.  1
   1 +1 1 2 501   0  0.7910758864867541E+01 -0.1497836942074694E+02  0.1158220341522942E+03  0.1170541552081670E+03  0.0000000000000000E+00 0. -1
   #pdf1pdf2  0.1214744547879451E-04
</event>
<event>
  5   1  0.2401515482509494E+02  0.1115539385714995E+03  0.7546888109483510E-02  0.1145212400319654E+00
   2 -1 0 0 502   0  0.2225698447675794E+01  0.7706156079860542E+01  0.5564302226186271E+03  0.5564302226186271E+03  0.8021133031383910E+01 0.  9
  21 -1 0 0 501 502  0.1111054853152431E+02  0.1951837461309161E+02 -0.1365661683203572E+02  0.1365661683203572E+02  0.2245910141141751E+02 0.  9
 -13 +1 1 2   0   0 -0.7227509551930132E+02  0.2839985365415654E+02  0.2113427822304789E+03  0.2251577507456078E+03  0.0000000000000000E+00 0.  1
  13 +1 1 2   0   0  0.2301674479006124E+02 -0.1569805442923132E+02  0.6250502488465443E+02  0.6843301534657954E+02  0.0000000000000000E+00 0. -1
   2 +1 1 2 501   0  0.6259459770844018E+02  0.1452273146802694E+02  0.2689257986714580E+03  0.2764960733584755E+03  0.0000000000000000E+00 0. -1
   #pdf1pdf2  0.4999382277534702E-05
</event>
<event>
  5  26  0.2401515482509494E+02  0.9200637248503831E+02  0.7546888109483510E-02  0.1178408822234120E+00
   2 -1 0 0 501   0  0.1525751706672447E+01 -0.8897199822798499E+00  0.8846653556092160E+03  0.8846653556092160E+03  0.1766216271378435E+01 0.  9
  -2 -1 0 0   0 502  0.4109378690282244E+01  0.2915266204002490E+01 -0.3045292603074719E+01  0.3045292603074719E+01  0.5038429344581989E+01 0.  9
 -13 +1 1 2   0   0  0.1630429533323245E+02  0.3478511676570943E+02  0.2069746137774791E+03  0.2105096794521666E+03  0.0000000000000000E+00 0. -1
  13 +1 1 2   0   0 -0.1076755019896816E+02 -0.4500191831537865E+02  0.5577666356501276E+03  0.5596827071062795E+03  0.0000000000000000E+00 0.  1
  21 +1 1 2 501 502  0.9838526269040937E-01  0.1224234777139186E+02  0.1168788135785346E+03  0.1175182616538445E+03  0.0000000000000000E+00 0. -1
   #pdf1pdf2  0.2448197152866419E-03
</event>
<event>
  5   2  0.2401515482509494E+02  0.9503730718505868E+02  0.7546888109483510E-02  0.1172684491982266E+00
   1 -1 0 0 502   0  0.3782683542936624E+00 -0.1446256254076851E+01  0.4011845731508536E+03  0.4011845731508536E+03  0.1494906050665539E+01 0.  9
  21 -1 0 0 501 502  0.4620243993227929E+02 -0.2495912099889665E+02 -0.9557516122795271E+01  0.9557516122795271E+01  0.5251307624519287E+02 0.  9
 -13 +1 1 2   0   0  0.4474015560734051E+02  0.2311892416608923E+02  0.1659615999845546E+03  0.1734341916918338E+03  0.0000000000000000E+00 0. -1
  13 +1 1 2   0   0 -0.2238219221673926E+02 -0.3811989141889673E+02  0.1681973004658738E+03  0.1739092307332275E+03  0.0000000000000000E+00 0.  1
   1 +1 1 2 501   0  0.2422274489597169E+02 -0.1140441000016600E+02  0.5746815657762988E+02  0.6339866684858755E+02  0.0000000000000000E+00 0. -1
   #pdf1pdf2  0.1579755273727969E-04
</event>
<event>
  5  26  0.2401515482509494E+02  0.9194013650289665E+02  0.7546888109483510E-02  0.1178536666010347E+00
   2 -1 0 0 501   0  0.4368212576920159E+01  0.1573091501413888E+01  0.1024962238596669E+04  0.1024962238596669E+04  0.4642832970179311E+01 0.  9
  -2 -1 0 0   0 502  0.6719815372136123E+00 -0.2031123572750059E+01 -0.2562154141090205E+01  0.2562154141090205E+01  0.2139397614782473E+01 0.  9
 -13 +1 1 2   0   0  0.3020098356954984E+02 -0.1287126749762176E+02  0.1661684715415914E+03  0.1693804294186086E+03  0.0000000000000000E+00 0.  1
  13 +1 1 2   0   0 -0.3687153018648959E+02  0.1316118760446691E+02  0.7829994604594878E+03  0.7839776027906041E+03  0.0000000000000000E+00 0. -1
  21 +1 1 2 501 502  0.1171074073107351E+02 -0.7479521781813188E+00  0.7323215245449926E+02  0.7416636052854616E+02  0.0000000000000000E+00 0. -1
   #pdf1pdf2  0.7613617569595166E-04
</event>
<event>
  5   1  0.2401515482509494E+02  0.9410620063321637E+02  0.7546888109483510E-02  0.1174417277675302E+00
   2 -1 0 0 502   0 -0.1166469220052425E+02  0.4380772628468403E+01  0.7714382874782191E+03  0.7714382874782191E+03  0.1246018510919117E+02 0.  9
  21 -1 0 0 501 502  0.3150672745316687E+01  0.2521380761292888E+01 -0.3431531266377060E+01  0.3431531266377060E+01  0.4035356203794070E+01 0.  9
 -13 +1 1 2   0   0  0.4715341296959227E+01  0.2657612334920529E+02  0.4647713572815117E+03  0.4655544429227559E+03  0.0000000000000000E+00 0. -1
  13 +1 1 2   0   0 -0.3545032647596387E+02 -0.1282430860423742E+02  0.1949412661042300E+03  0.1985529797528844E+03  0.0000000000000000E+00 0.  1
   2 +1 1 2 501   0  0.2222096572379708E+02 -0.6849661355206576E+01  0.1082941328261004E+03  0.1107623960689559E+03  0.0000000000000000E+00 0. -1
   #pdf1pdf2  0.2851104897438718E-04
</event>
<event>
  5  26  0.2401515482509494E+02  0.9267300242312635E+02  0.7546888109483510E-02  0.1177128813524882E+00
   2 -1 0 0 501   0 -0.3337681854800154E+00  0.1556459674590630E+01  0.1294673460188639E+04  0.1294673460188639E+04  0.1591844188438489E+01 0.  9
  -2 -1 0 0   0 502 -0.7119110951122541E+00 -0.1159478029561721E+01 -0.2643904283171115E+01  0.2643904283171115E+01  0.1360590573383580E+01 0.  9
 -13 +1 1 2   0   0 -0.5091273797206413E+02  0.1374330933079678E+02  0.5727370994183788E+03  0.5751597782263220E+03  0.0000000000000000E+00 0. -1
  13 +1 1 2   0   0  0.3754355078591418E+02 -0.2340478705410121E+01  0.6428618291801830E+03  0.6439614332109305E+03  0.0000000000000000E+00 0.  1
  21 +1 1 2 501 502  0.1232350790555768E+02 -0.1100584898035775E+02  0.7643062730690576E+02  0.7819615303455735E+02  0.0000000000000000E+00 0.  1
   #pdf1pdf2  0.1028579702429072E-02
</event>
<event>
  5  26  0.2401515482509494E+02  0.9264105098227353E+02  0.7546888109483510E-02  0.1177189888775609E+00
   2 -1 0 0 501   0  0.2073604975166234E+01 -0.3022801343452793E+01  0.4328625004700135E+03  0.4328625004700135E+03  0.3665673956452506E+01 0.  9
  -2 -1 0 0   0 502  0.1393885782097062E+02 -0.5767824186363571E+01 -0.5778557881975747E+01  0.5778557881975747E+01  0.1508507716911102E+02 0.  9
 -13 +1 1 2   0   0 -0.2614450213491936E+02 -0.2178024784908055E+02  0.2188290691226488E+03  0.2214589706499495E+03  0.0000000000000000E+00 0. -1
  13 +1 1 2   0   0  0.3555927782144867E+02  0.2794111163183512E+02  0.1485873614192916E+03  0.1553170046451863E+03  0.0000000000000000E+00 0.  1
  21 +1 1 2 501 502  0.6597687109607534E+01 -0.1495148931257093E+02  0.5966751204609739E+02  0.6186508305685349E+02  0.0000000000000000E+00 0. -1
   #pdf1pdf2  0.5695677055335802E-05
</event>
<event>
  5  27  0.2401515482509494E+02  0.9293475801414773E+02  0.7546888109483510E-02  0.1176629502977304E+00
   1 -1 0 0 501   0  0.1194230515246951E+01  0.1833222475684447E+01  0.7889945480169660E+03  0.7889945480169660E+03  0.2187896516954495E+01 0.  9
  -1 -1 0 0   0 502 -0.3313201507353105E+00 -0.2045273611357997E+01 -0.4124111870941012E+01  0.4124111870941012E+01  0.2071935613768114E+01 0.  9
 -13 +1 1 2   0   0  0.4504370754457602E+02  0.9659317244289888E+01  0.2644178159920206E+03  0.2684008558350312E+03  0.0000000000000000E+00 0. -1
  13 +1 1 2   0   0 -0.3776093736221448E+02 -0.2661552640081813E+02  0.2999117607669799E+03  0.3034490713157908E+03  0.0000000000000000E+00 0.  1
  21 +1 1 2 501 502 -0.6419859817849893E+01  0.1674415802085469E+02  0.2205408593870245E+03  0.2212687327370849E+03  0.0000000000000000E+00 0. -1
   #pdf1pdf2  0.2355256564448005E-03
</event>
<event>
  5  26  0.2401515482509494E+02  0.9201986530620793E+02  0.7546888109483510E-02  0.1178382794160086E+00
   2 -1 0 0 501   0  0.6055406934358272E+00  0.8701545518055175E+00  0.1168269105621177E+04  0.1168269105621177E+04  0.1060117198914631E+01 0.  9
  -2 -1 0 0   0 502  0.1536216435432974E+01 -0.1043078552080247E+00 -0.2678754238763442E+01  0.2678754238763442E+01  0.1539753572865636E+01 0.  9
 -13 +1 1 2   0   0  0.1346985506061402E+02  0.1806007411948626E+02  0.4903599022095957E+02  0.5396416968234876E+02  0.0000000000000000E+00 0.  1
  13 +1 1 2   0   0 -0.1668075748297741E+02 -0.6171420786915281E+01  0.7806982798236932E+03  0.7809008504441576E+03  0.0000000000000000E+00 0. -1
  21 +1 1 2 501 502  0.5352659551232188E+01 -0.1112280663597349E+02  0.3358560813377612E+03  0.3360828397334347E+03  0.0000000000000000E+00 0. -1
   #pdf1pdf2  0.2161542696713933E-02
</event>
<event>
  5  27  0.2401515482509494E+02  0.9243060424702091E+02  0.7546888109483510E-02  0.1177592848332945E+00
   1 -1 0 0 501   0 -0.3985865437608492E+00 -0.9098537961912414E+00  0.9561788982984499E+03  0.9561788982984499E+03  0.9933303394696210E+00 0.  9
  -1 -1 0 0   0 502  0.1645604137659318E+01  0.2797904321275405E+00 -0.3329860792676888E+01  0.3329860792676888E+01  0.1669220076500275E+01 0.  9
 -13 +1 1 2   0   0 -0.1929141148160199E+02  0.3047710429420940E+02  0.1730325769882841E+03  0.1767520442380202E+03  0.0000000000000000E+00 0.  1
  13 +1 1 2   0   0  0.2967409650865850E+02 -0.4313498386821486E+02  0.5713727073424393E+03  0.5737664590517165E+03  0.0000000000000000E+00 0. -1
  21 +1 1 2 501 502 -0.9135667433158043E+01  0.1202781620994175E+02  0.2084437531750497E+03  0.2089902558013900E+03  0.0000000000000000E+00 0. -1
   #pdf1pdf2  0.9850823258676824E-03
</event>
<event>
  5   1  0.2401515482509494E+02  0.9866784731943507E+02  0.7546888109483510E-02  0.1166135011088486E+00
   2 -1 0 0 502   0 -0.2341550053907143E+01  0.1259066242551536E+01  0.1211781793027260E+04  0.1211781793027260E+04  0.2658590690212653E+01 0.  9
  21 -1 0 0 501 502 -0.4830163259940048E+01  0.3847670383553036E+00 -0.4301668741184210E+01  0.4301668741184210E+01  0.4845464146134959E+01 0.  9
 -13 +1 1 2   0   0 -0.7092558170312103E+01  0.5403202362771087E+02  0.5166658433026644E+03  0.5195318638874406E+03  0.0000000000000000E+00 0. -1
  13 +1 1 2   0   0  0.3129559346276589E+02 -0.3151520720344938E+02  0.5053294983823403E+03  0.5072775614893790E+03  0.0000000000000000E+00 0.  1
   2 +1 1 2 501   0 -0.3137474860630098E+02 -0.2087298314335465E+02  0.1854847826010716E+03  0.1892740363916249E+03  0.0000000000000000E+00 0. -1
   #pdf1pdf2  0.7909283620092354E-03
</event>
<event>
  5  26  0.2401515482509494E+02  0.9430067017938616E+02  0.7546888109483510E-02  0.1174053519749272E+00
   2 -1 0 0 501   0  0.6595181696441772E+01  0.1085538587647795E+01  0.7250697726082054E+03  0.7250697726082054E+03  0.6683922174468591E+01 0.  9
  -2 -1 0 0   0 502  0.1450494998173712E+01 -0.1579600663539454E+00 -0.4879563464794787E+01  0.4879563464794787E+01  0.1459070636497595E+01 0.  9
 -13 +1 1 2   0   0  0.1101583418259905E+02 -0.3268239523259567E+02  0.4411555638439143E+03  0.4425016599644797E+03  0.0000000000000000E+00 0. -1
  13 +1 1 2   0   0  0.2082416293699440E+02  0.3695046661495775E+02  0.1376699769296839E+03  0.1440555632140227E+03  0.0000000000000000E+00 0.  1
  21 +1 1 2 501 502 -0.2379432042497796E+02 -0.3340492861068237E+01  0.1413646683698124E+03  0.1433921128944978E+03  0.0000000000000000E+00 0.  1
   #pdf1pdf2  0.5374721705547145E-04
</event>
<event>
  5   2  0.2401515482509494E+02  0.9395485124517920E+02  0.7546888109483510E-02  0.1174701060879124E+00
   1 -1 0 0 502   0 -0.4147376855630883E+00 -0.1940256763702310E+01  0.5319697212097634E+03  0.5319697212097634E+03  0.1984087613216410E+01 0.  9
  21 -1 0 0 501 502 -0.2432693532555637E+02 -0.3009820423987890E+01 -0.6401909768900242E+01  0.6401909768900242E+01  0.2451242136791992E+02 0.  9
 -13 +1 1 2   0   0  0.1622097317334034E+02 -0.4902117954729669E+02  0.2106158425275670E+03  0.2168530127494092E+03  0.0000000000000000E+00 0.  1
  13 +1 1 2   0   0 -0.2137343675615682E+02  0.3273579789797701E+02  0.2419673114452709E+03  0.2451053570831110E+03  0.0000000000000000E+00 0. -1
   1 +1 1 2 501   0 -0.1958920942830298E+02  0.1133530446162948E+02  0.7298465746802529E+02  0.7641326114614355E+02  0.0000000000000000E+00 0. -1
   #pdf1pdf2  0.7993962240067586E-04
</event>
<event>
  5  26  0.2401515482509494E+02  0.9868091704860126E+02  0.7546888109483510E-02  0.1166112010435736E+00
   2 -1 0 0 501   0 -0.1949258374167083E+00  0.7708091170323134E+00  0.1459025459264317E+04  0.1459025459264317E+04  0.7950740701297833E+00 0.  9
  -2 -1 0 0   0 502  0.8005668205420545E+01 -0.2676310666999830E+01 -0.4382333596464041E+01  0.4382333596464041E+01  0.8441170665350777E+01 0.  9
 -13 +1 1 2   0   0 -0.4367207335560069E+02 -0.1385746709755186E+02  0.9723831979227933E+03  0.9734620501016436E+03  0.0000000000000000E+00 0. -1
  13 +1 1 2   0   0  0.2225611725883268E+02  0.3579385446524827E+02  0.3461403952119439E+03  0.3486971579614594E+03  0.0000000000000000E+00 0.  1
  21 +1 1 2 501 502  0.2922669846477184E+02 -0.2384188891766393E+02  0.1361195325331153E+03  0.1412485847976777E+03  0.0000000000000000E+00 0.  1
   #pdf1pdf2  0.1420421225939661E-03
</event>
<event>
  5  26  0.2401515482509494E+02  0.9233642288555382E+02  0.7546888109483510E-02  0.1177773574306987E+00
   2 -1 0 0 501   0 -0.3242104691122648E+01  0.2417707761538510E+00  0.9986729540967337E+03  0.9986729540967337E+03  0.3251106878649412E+01 0.  9
  -2 -1 0 0   0 502  0.1375451500689815E+01  0.5489592445889330E+01 -0.3033363605248798E+01  0.3033363605248798E+01  0.5659283704914877E+01 0.  9
 -13 +1 1 2   0   0 -0.3031871593410899E+02  0.3268400749822344E+02  0.2489737310556673E+03  0.2529335636838592E+03  0.0000000000000000E+00 0.  1
  13 +1 1 2   0   0  0.1400858689215942E+02 -0.2840632147091153E+02  0.6697831025865725E+03  0.6705315534087258E+03  0.0000000000000000E+00 0. -1
  21 +1 1 2 501 502  0.1444347585151673E+02  0.1453677194731266E+01  0.7688275684924520E+02  0.7824120060939754E+02  0.0000000000000000E+00 0. -1
   #pdf1pdf2  0.4618443705339938E-04
</event>
<event>
  5  26  0.2401515482509494E+02  0.9231576745247322E+02  0.7546888109483510E-02  0.1177813242581169E+00
   2 -1 0 0 501   0  0.2135563401957844E+01 -0.7999021343001458E+00  0.1172160903778666E+04  0.1172160903778666E+04  0.2280454881868898E+01 0.  9
  -2 -1 0 0   0 502  0.1468407433773226E+02  0.2929874478861338E+02 -0.3448675607069349E+01  0.3448675607069349E+01  0.3277252638025251E+02 0.  9
 -13 +1 1 2   0   0  0.7486618924525915E+01 -0.3329767592778416E+02  0.2203077191703711E+03  0.2229355866862980E+03  0.0000000000000000E+00 0.  1
  13 +1 1 2   0   0  0.1649887545406628E+02  0.4932400481261936E+02  0.9127014997800763E+03  0.9141822017753379E+03  0.0000000000000000E+00 0. -1
  21 +1 1 2 501 502 -0.7165856638902095E+01  0.1247251376947803E+02  0.3570300922114939E+02  0.3849179092409958E+02  0.0000000000000000E+00 0.  1
   #pdf1pdf2  0.1486598846456350E-05
</event>
<event>
  5  26  0.2401515482509494E+02  0.9351878409885131E+02  0.7546888109483510E-02  0.1175522055134093E+00
   2 -1 0 0 501   0  0.1501588047070499E+02  0.1620747455829080E+02  0.1495379528195697E+04  0.1495379528195697E+04  0.2209431822591824E+02 0.  9
  -2 -1 0 0   0 502  0.8228974062341345E+01  0.1729732840883523E+01 -0.2816577443512398E+01  0.2816577443512398E+01  0.8408804303794779E+01 0.  9
 -13 +1 1 2   0   0 -0.2876694592727988E+02 -0.9535362101611096E+00  0.4409417072325845E+03  0.4418801144954064E+03  0.0000000000000000E+00 0. -1
  13 +1 1 2   0   0  0.6648702644827065E+02  0.3375489486951522E+02  0.6711337786041283E+03  0.6752632571057308E+03  0.0000000000000000E+00 0.  1
  21 +1 1 2 501 502 -0.1447522598794444E+02 -0.1486415126017979E+02  0.3804874649154717E+03  0.3810527340380723E+03  0.0000000000000000E+00 0. -1
   #pdf1pdf2  0.8923567681881261E-08
</event>
<event>
  5   1  0.2401515482509494E+02  0.1155323490130696E+03  0.7546888109483510E-02  0.1139376352454616E+00
   2 -1 0 0 502   0  0.5693739484319146E+01 -0.9811793499952913E+01  0.2274442747606979E+04  0.2274442747606979E+04  0.1134415977501256E+02 0.  9
  21 -1 0 0 501 502 -0.5409799627056611E+01  0.2576784846589123E+02 -0.9818519526141529E+01  0.9818519526141529E+01  0.2632960209661427E+02 0.  9
 -13 +1 1 2   0   0  0.7980621582892918E+02  0.5129677723099591E+02  0.1909800024827651E+04  0.1912154943060556E+04  0.0000000000000000E+00 0. -1
  13 +1 1 2   0   0 -0.2329074116626227E+02  0.7907981098931465E+01  0.2034792895761104E+03  0.2049605232124798E+03  0.0000000000000000E+00 0.  1
   2 +1 1 2 501   0 -0.5623153480540438E+02 -0.4324870336398906E+02  0.1513449136770755E+03  0.1671458008600849E+03  0.0000000000000000E+00 0. -1
   #pdf1pdf2  0.8396763616900476E-08
</event>
<event>
  5   1  0.2401515482509494E+02  0.9223133316454940E+02  0.7546888109483510E-02  0.1177975517543955E+00
   2 -1 0 0 502   0 -0.3744759796368847E+00  0.3804566410852268E+00  0.5427993425730909E+03  0.5427993425730909E+03  0.5338347263628113E+00 0.  9
  21 -1 0 0 501 502  0.1186109356910930E+02  0.6530359123956544E+01 -0.5609244769285767E+01  0.5609244769285767E+01  0.1353998267882971E+02 0.  9
 -13 +1 1 2   0   0  0.1908210779402490E+02  0.3975145800281597E+02  0.3039902100004259E+03  0.3071715368117877E+03  0.0000000000000000E+00 0. -1
  13 +1 1 2   0   0 -0.1606202778367717E+02 -0.4377904886266161E+02  0.1979910661033561E+03  0.2034085939988438E+03  0.0000000000000000E+00 0.  1
   2 +1 1 2 501   0  0.8466537579124694E+01  0.1093840662488741E+02  0.3520882170002324E+02  0.3782845653174523E+02  0.0000000000000000E+00 0.  1
   #pdf1pdf2  0.2491798572833836E-02
</event>
<event>
  5   1  0.2401515482509494E+02  0.9189881994349831E+02  0.7546888109483510E-02  0.1178616473229239E+00
   2 -1 0 0 502   0 -0.5562152415100769E+01  0.4030133609729601E+01  0.1231541141546040E+04  0.1231541141546040E+04  0.6868734701608693E+01 0.  9
  21 -1 0 0 501 502  0.4902888690974162E+01  0.1092650974409882E+02 -0.2435580728402268E+01  0.2435580728402268E+01  0.1197609839238008E+02 0.  9
 -13 +1 1 2   0   0  0.3754168849514753E+02 -0.8999198477959183E+01  0.3798853644821803E+03  0.3818419229158466E+03  0.0000000000000000E+00 0. -1
  13 +1 1 2   0   0 -0.4793035320453504E+02  0.2990933192042711E+02  0.7734732444989495E+03  0.7755338463600215E+03  0.0000000000000000E+00 0.  1
   2 +1 1 2 501   0  0.9729400985260900E+01 -0.5953490088639514E+01  0.7574695183650806E+02  0.7660095299857436E+02  0.0000000000000000E+00 0.  1
   #pdf1pdf2  0.2118494261535288E-04
</event>
<event>
  5  26  0.2401515482509494E+02  0.9269839868751477E+02  0.7546888109483510E-02  0.1177080288169802E+00
   2 -1 0 0 501   0 -0.3715988161298695E+01 -0.7912748178095575E+01  0.1098608215987035E+04  0.1098608215987035E+04  0.8741862029617426E+01 0.  9
  -2 -1 0 0   0 502  0.9242577616506183E+00  0.3749090940657111E+01 -0.2513167482071023E+01  0.2513167482071023E+01  0.3861338536218837E+01 0.  9
 -13 +1 1 2   0   0 -0.3221320889568475E+02  0.1688973659850366E+02  0.8361769952849976E+03  0.8369676944025802E+03  0.0000000000000000E+00 0. -1
  13 +1 1 2   0   0  0.2951192298742624E+02 -0.4389147084785952E+01  0.1862167489521239E+03  0.1885918762853957E+03  0.0000000000000000E+00 0.  1
  21 +1 1 2 501 502 -0.9044449138956789E-01 -0.1666424675115617E+02  0.7370130426784306E+02  0.7556181278113054E+02  0.0000000000000000E+00 0.  1
   #pdf1pdf2  0.4881715286954479E-05
</event>
<event>
  5   2  0.2401515482509494E+02  0.1462189298799942E+03  0.7546888109483510E-02  0.1101674007008890E+00
   1 -1 0 0 502   0  0.4762340804310503E+00  0.6134621802833700E+00  0.2101839402428207E+04  0.2101839402428207E+04  0.7766175030232283E+00 0.  9
  21 -1 0 0 501 502 -0.2364924961686030E+01  0.2488353346788147E+02 -0.8859788215207784E+01  0.8859788215207784E+01  0.2499566178202895E+02 0.  9
 -13 +1 1 2   0   0  0.2660210654306715E+02 -0.1976855361388392E+02  0.2547965010142723E+03  0.2569430378773275E+03  0.0000000000000000E+00 0.  1
  13 +1 1 2   0   0 -0.5492297861302941E+02 -0.6593709204479252E+02  0.1334955357915529E+04  0.1337710746504799E+04  0.0000000000000000E+00 0. -1
   1 +1 1 2 501   0  0.2643218118870728E+02  0.1112026413068413E+03  0.5032277552831990E+03  0.5160454062612881E+03  0.0000000000000000E+00 0. -1
   #pdf1pdf2  0.1680437852057879E-04
</event>
<event>
  5  26  0.2401515482509494E+02  0.9185334359815114E+02  0.7546888109483510E-02  0.1178704369812053E+00
   2 -1 0 0 501   0  0.1559820334298571E+01  0.8332544692045060E+01  0.4538891477777873E+03  0.4538891477777873E+03  0.8477283793776142E+01 0.  9
  -2 -1 0 0   0 502 -0.1788570645213715E+02 -0.1853697572718454E+02 -0.2872111421197262E+01  0.2872111421197262E+01  0.2575884245074396E+02 0.  9
 -13 +1 1 2   0   0 -0.2126204096836134E+02  0.1586862145004493E+02  0.8464398911471989E+02  0.8870452314351236E+02  0.0000000000000000E+00 0. -1
  13 +1 1 2   0   0  0.1260855038072700E+02 -0.1814315603263738E+02  0.1788805158353637E+03  0.1802398085858220E+03  0.0000000000000000E+00 0.  1
  21 +1 1 2 501 502 -0.7672395530204227E+01 -0.7929896452547033E+01  0.1874925314065065E+03  0.1878169274696502E+03  0.0000000000000000E+00 0.  1
   #pdf1pdf2  0.2629855158210966E-06
</event>
<event>
  5   2  0.2401515482509494E+02  0.9183183305447116E+02  0.7546888109483510E-02  0.1178745965187721E+00
   1 -1 0 0 502   0  0.5913000991053484E+00  0.5393596027833171E+00  0.6688783806103596E+03  0.6688783806103596E+03  0.8003402953222913E+00 0.  9
  21 -1 0 0 501 502  0.1744027546755946E+01  0.4659204310536724E+01 -0.4130328807996731E+01  0.4130328807996731E+01  0.4974918782368969E+01 0.  9
 -13 +1 1 2   0   0  0.2634584461110946E+01  0.2889697266514997E+02  0.7171787801495999E+02  0.7736556140468338E+02  0.0000000000000000E+00 0.  1
  13 +1 1 2   0   0 -0.9033455390049532E+01 -0.3014135203578240E+02  0.5598373265830350E+03  0.5607209079876269E+03  0.0000000000000000E+00 0. -1
   1 +1 1 2 501   0  0.8734198574799880E+01  0.6442943283952477E+01  0.3319284720436792E+02  0.3492224002604615E+02  0.0000000000000000E+00 0. -1
   #pdf1pdf2  0.4608417270884633E-02
</event>
<event>
  5  26  0.2401515482509494E+02  0.9185228755639838E+02  0.7546888109483510E-02  0.1178706411603884E+00
   2 -1 0 0 501   0 -0.3617127153089499E+00  0.1396582793600278E+01  0.1312289433805716E+04  0.1312289433805716E+04  0.1442664059230884E+01 0.  9
  -2 -1 0 0   0 502 -0.1506032267867379E+01 -0.4479017174663340E+01 -0.2373941891411186E+01  0.2373941891411186E+01  0.4725434164474935E+01 0.  9
 -13 +1 1 2   0   0 -0.3382484766479522E+02  0.2501014137127405E+02  0.5786634285886799E+03  0.5801904782715449E+03  0.0000000000000000E+00 0.  1
  13 +1 1 2   0   0  0.3933462262343190E+02 -0.1989946220427433E+02  0.3144250193958203E+03  0.3175000692204792E+03  0.0000000000000000E+00 0. -1
  21 +1 1 2 501 502 -0.7377519941813007E+01 -0.8193113548062783E+01  0.4168270439298047E+03  0.4169728282051034E+03  0.0000000000000000E+00 0. -1
   #pdf1pdf2  0.2745456642797152E-03
</event>
<event>
  5   2  0.2401515482509494E+02  0.9201910471979350E+02  0.7546888109483510E-02  0.1178384261222214E+00
   1 -1 0 0 502   0  0.9090263710019213E+00 -0.3437435463678526E+01  0.1852648224809494E+04  0.1852648224809494E+04  0.3555600021112009E+01 0.  9
  21 -1 0 0 501 502 -0.8518434952363069E+00  0.2670774308176467E+00 -0.1530748561813614E+01  0.1530748561813614E+01  0.8927304713229872E+00 0.  9
 -13 +1 1 2   0   0  0.2789641878170938E+02  0.2213191759453531E+02  0.1098626773606104E+04  0.1099203720718509E+04  0.0000000000000000E+00 0. -1
  13 +1 1 2   0   0 -0.3015506904603308E+02 -0.1318349965539351E+02  0.2303893255626306E+03  0.2327281121513655E+03  0.0000000000000000E+00 0.  1
   1 +1 1 2 501   0  0.2315833140089318E+01 -0.1211877597200267E+02  0.5221013770789464E+03  0.5222471405014339E+03  0.0000000000000000E+00 0. -1
   #pdf1pdf2  0.8005565144221693E-04
</event>
<event>
  5  26  0.2401515482509494E+02  0.9543027540967162E+02  0.7546888109483510E-02  0.1171959841928035E+00
   2 -1 0 0 501   0 -0.5854064845583904E+00  0.5103495987956892E+00  0.9733814485496256E+03  0.9733814485496256E+03  0.7766321298748423E+00 0.  9
  -2 -1 0 0   0 502  0.9837613568799142E+00 -0.7084872536547784E+00 -0.4870833257805832E+01  0.4870833257805832E+01  0.1212328584122927E+01 0.  9
 -13 +1 1 2   0   0  0.2665549562203961E+02  0.3456766703486104E+02  0.2257580090268046E+03  0.2299393782953159E+03  0.0000000000000000E+00 0.  1
  13 +1 1 2   0   0 -0.3604782642191670E+02 -0.8387932910632607E+01  0.6574274444123414E+03  0.6584684106886223E+03  0.0000000000000000E+00 0. -1
  21 +1 1 2 501 502  0.9790685672198610E+01 -0.2637787177908752E+02  0.8532516185267366E+02  0.8984449282349327E+02  0.0000000000000000E+00 0.  1
   #pdf1pdf2  0.3720604731274964E-02
</event>
<event>
  5  13  0.2401515482509494E+02  0.9468965150223426E+02  0.7546888109483510E-02  0.1173328865291689E+00
  -3 -1 0 0   0 501  0.1304916713392611E+01  0.6367729859647975E+00  0.1170497313531383E+04  0.1170497313531383E+04  0.1451994305961941E+01 0.  9
  21 -1 0 0 501 502  0.1151768195580550E+02 -0.6838257472436831E+01 -0.4563783106112826E+01  0.4563783106112826E+01  0.1339472892202100E+02 0.  9
 -13 +1 1 2   0   0  0.3650937662087156E+02 -0.2114165755611979E+01  0.2377654571336452E+03  0.2405614617598965E+03  0.0000000000000000E+00 0. -1
  13 +1 1 2   0   0 -0.3989232338826248E+02 -0.2379068340487513E+02  0.8667525574498472E+03  0.8679961923465077E+03  0.0000000000000000E+00 0.  1
  -3 +1 1 2   0 502  0.1620554543658903E+02  0.1970336467401507E+02  0.6141551584177728E+02  0.6650344253109137E+02  0.0000000000000000E+00 0.  1
   #pdf1pdf2  0.1077994855697178E-04
</event>
<event>
  5   1  0.2401515482509494E+02  0.9667295706723269E+02  0.7546888109483510E-02  0.1169693785581518E+00
   2 -1 0 0 502   0  0.5288227970269712E+00  0.2568757299385739E-01  0.1279040801038271E+04  0.1279040801038271E+04  0.5294463165059738E+00 0.  9
  21 -1 0 0 501 502  0.6866536937315348E+01 -0.8998438286449469E+01 -0.5735833215195036E+01  0.5735833215195036E+01  0.1131906449785298E+02 0.  9
 -13 +1 1 2   0   0  0.3119848690564245E+02  0.1755309719850166E+02  0.2629053793007971E+03  0.2653312934272126E+03  0.0000000000000000E+00 0.  1
  13 +1 1 2   0   0 -0.3496868474351641E+02 -0.5662075002152626E+02  0.9366719331156024E+03  0.9390330284565134E+03  0.0000000000000000E+00 0. -1
   2 +1 1 2 501   0  0.1116555757221628E+02  0.3009490210956898E+02  0.7372765540667638E+02  0.8041231236973995E+02  0.0000000000000000E+00 0. -1
   #pdf1pdf2  0.2519394629852856E-02
</event>
<event>
  5   1  0.2401515482509494E+02  0.9393376504742450E+02  0.7546888109483510E-02  0.1174740645458546E+00
   2 -1 0 0 502   0 -0.3577397843065622E+01 -0.2571692414675651E+00  0.1187331579531527E+04  0.1187331579531527E+04  0.3586629524543561E+01 0.  9
  21 -1 0 0 501 502  0.7469689174338191E+00 -0.3073971323665294E+02 -0.2678262874511725E+01  0.2678262874511725E+01  0.3074878749536749E+02 0.  9
 -13 +1 1 2   0   0  0.2126979522027653E+02  0.8463036239479313E+01  0.8332305068683953E+03  0.8335449026580790E+03  0.0000000000000000E+00 0.  1
  13 +1 1 2   0   0 -0.1964885339714830E+02 -0.1735902065435737E+02  0.2873097481723645E+03  0.2885035605200888E+03  0.0000000000000000E+00 0. -1
   2 +1 1 2 501   0 -0.4451370748760031E+01 -0.2210089806324245E+02  0.6411306161625498E+02  0.6796137922787072E+02  0.0000000000000000E+00 0.  1
   #pdf1pdf2  0.2174022114140809E-04
</event>
<event>
  5  27  0.2401515482509494E+02  0.9499666573323877E+02  0.7546888109483510E-02  0.1172759660583955E+00
   1 -1 0 0 501   0  0.5762697519480498E+01 -0.1314892646751128E+02  0.7203540558925404E+03  0.7203540558925404E+03  0.1435628607784915E+02 0.  9
  -1 -1 0 0   0 502 -0.1425616693630621E+02 -0.1846155690921929E+02 -0.5948574182982526E+01  0.5948574182982526E+01  0.2332525196494505E+02 0.  9
 -13 +1 1 2   0   0  0.4153836237802707E+02  0.9515672492285681E+01  0.2676105084701833E+03  0.2709822278595015E+03  0.0000000000000000E+00 0.  1
  13 +1 1 2   0   0 -0.2674586160574068E+02 -0.5404289979093735E+02  0.2806142177951493E+03  0.2870197124931146E+03  0.0000000000000000E+00 0. -1
  21 +1 1 2 501 502 -0.2328597018911210E+02  0.1291674392192110E+02  0.1661807554442253E+03  0.1683006897229067E+03  0.0000000000000000E+00 0. -1
   #pdf1pdf2  0.1427876073967075E-07
</event>
<event>
  5  26  0.2401515482509494E+02  0.9195667782576412E+02  0.7546888109483510E-02  0.1178504727886478E+00
   2 -1 0 0 501   0  0.1702324583834152E+01 -0.4216914521744866E+00  0.2041337762097279E+04  0.2041337762097279E+04  0.1753776687484226E+01 0.  9
  -2 -1 0 0   0 502 -0.3685295083943678E+00  0.4062753137833595E+00 -0.1750293640997026E+01  0.1750293640997026E+01  0.5485194883932216E+00 0.  9
 -13 +1 1 2   0   0 -0.2853251042302094E+02  0.2042853562526395E+02  0.8558428358796939E+03  0.8565619586144537E+03  0.0000000000000000E+00 0. -1
  13 +1 1 2   0   0  0.2747174746008771E+02 -0.3206328347043764E+02  0.3288936659495164E+03  0.3315928143930875E+03  0.0000000000000000E+00 0.  1
  21 +1 1 2 501 502  0.2394558038373022E+01  0.1161933170678255E+02  0.8548509666270719E+03  0.8549332827307348E+03  0.0000000000000000E+00 0. -1
   #pdf1pdf2  0.2955709139829426E-03
</event>
<event>
  5   1  0.2401515482509494E+02  0.9451636788396448E+02  0.7546888109483510E-02  0.1173651202101049E+00
   2 -1 0 0 502   0 -0.4251103291722727E+01  0.3975957256237705E+00  0.1182793223567485E+04  0.1182793223567485E+04  0.4269655906268103E+01 0.  9
  21 -1 0 0 501 502 -0.2514915769553105E+01  0.1722810133281530E+02 -0.3574221030991121E+01  0.3574221030991121E+01  0.1741069432451501E+02 0.  9
 -13 +1 1 2   0   0  0.4362560829359680E+02  0.2637308165610030E+02  0.8710309505100898E+03  0.8725214323336340E+03  0.0000000000000000E+00 0. -1
  13 +1 1 2   0   0 -0.2654101159782085E+02 -0.1576194850045566E+02  0.2222775964742440E+03  0.2244107711575661E+03  0.0000000000000000E+00 0.  1
   2 +1 1 2 501   0 -0.2385061575705178E+02  0.7014563902794425E+01  0.8591045555215965E+02  0.8943524110727556E+02  0.0000000000000000E+00 0. -1
   #pdf1pdf2  0.3825004101377275E-04
</event>
<event>
  5  26  0.2401515482509494E+02  0.1142186833285116E+03  0.7546888109483510E-02  0.1141274377740339E+00
   2 -1 0 0 501   0 -0.2743091217073103E+00 -0.1349125434794888E+01  0.6037404821380594E+03  0.6037404821380594E+03  0.1376729796678467E+01 0.  9
  -2 -1 0 0   0 502  0.3804406048628493E+02  0.5279325725106174E+02 -0.1213310901898193E+02  0.1213310901898193E+02  0.6507287107129122E+02 0.  9
 -13 +1 1 2   0   0 -0.1154658002587723E+01  0.2504885592735978E+02  0.2348142733370545E+03  0.2361493624407687E+03  0.0000000000000000E+00 0. -1
  13 +1 1 2   0   0  0.4403289044118119E+02 -0.4219425117736768E+02  0.1573835207215000E+03  0.1687863231062241E+03  0.0000000000000000E+00 0.  1
  21 +1 1 2 501 502 -0.5108481074015856E+01  0.6858952706627475E+02  0.1994095790605229E+03  0.2109379056100485E+03  0.0000000000000000E+00 0. -1
   #pdf1pdf2  0.3576235986869610E-06
</event>
<event>
  5   2  0.2401515482509494E+02  0.9454229496601364E+02  0.7546888109483510E-02  0.1173602924106691E+00
   1 -1 0 0 502   0 -0.2226960094777660E+01 -0.4833266193134082E+01  0.1381008625902655E+04  0.1381008625902655E+04  0.5321636342087360E+01 0.  9
  21 -1 0 0 501 502 -0.2239140215748828E+01 -0.2420529177573981E+02 -0.2649844300849499E+01  0.2649844300849499E+01  0.2430863835870864E+02 0.  9
 -13 +1 1 2   0   0 -0.7617356520176283E+01  0.4143615515965613E+02  0.6706285819637983E+03  0.6719506485014696E+03  0.0000000000000000E+00 0. -1
  13 +1 1 2   0   0 -0.7534803111057048E+01 -0.4791887454081475E+02  0.5332083043998477E+03  0.5354102050541635E+03  0.0000000000000000E+00 0.  1
   1 +1 1 2 501   0  0.1068605932070684E+02 -0.2255583858771528E+02  0.1745218952381597E+03  0.1762976166478716E+03  0.0000000000000000E+00 0. -1
   #pdf1pdf2  0.2759630087905999E-05
</event>
<event>
  5  26  0.2401515482509494E+02  0.9277084856841169E+02  0.7546888109483510E-02  0.1176941951746291E+00
   2 -1 0 0 501   0  0.1035151309235846E+01  0.1478806448471596E+00  0.7570037328036821E+03  0.7570037328036821E+03  0.1045660995797920E+01 0.  9
  -2 -1 0 0   0 502  0.6917070901816696E+00  0.2559814173813550E+01 -0.3833709611345351E+01  0.3833709611345351E+01  0.2651623522120805E+01 0.  9
 -13 +1 1 2   0   0  0.4198741075582290E+02 -0.1587355502809478E+02  0.2965215390624970E+03  0.2998998758572602E+03  0.0000000000000000E+00 0.  1
  13 +1 1 2   0   0 -0.3099160157208373E+02  0.3290706836511595E+02  0.3550921094573369E+03  0.3579577638706144E+03  0.0000000000000000E+00 0. -1
  21 +1 1 2 501 502 -0.9268950784321653E+01 -0.1432581851836046E+02  0.1015563746725028E+03  0.1029798026871529E+03  0.0000000000000000E+00 0. -1
   #pdf1pdf2  0.1432038376926838E-02
</event>
<event>
  5  27  0.2401515482509494E+02  0.9174825960039762E+02  0.7546888109483510E-02  0.1178907693965083E+00
   1 -1 0 0 501   0  0.8245670286952560E+00 -0.2621648207961609E+01  0.8941844829008653E+03  0.8941844829008653E+03  0.2748263108059278E+01 0.  9
  -1 -1 0 0   0 502 -0.5603532235557346E+01 -0.4569382146411430E+00 -0.7366966509765427E+01  0.7366966509765427E+01  0.5622131806257280E+01 0.  9
 -13 +1 1 2   0   0  0.3587940822951710E+02  0.1532983536176790E+02  0.1014108185955520E+03  0.1086576730624175E+03  0.0000000000000000E+00 0. -1
  13 +1 1 2   0   0 -0.5038491171114966E+02 -0.2121016653566061E+02  0.1982308061002820E+03  0.2056306469857506E+03  0.0000000000000000E+00 0.  1
  21 +1 1 2 501 502  0.9726538274770469E+01  0.2801744751289959E+01  0.5871758916952658E+03  0.5872631293624626E+03  0.0000000000000000E+00 0.  1
   #pdf1pdf2  0.2219277400212117E-04
</event>
<event>
  5  26  0.2401515482509494E+02  0.9415809844679657E+02  0.7546888109483510E-02  0.1174320105837701E+00
   2 -1 0 0 501   0  0.4712717858426434E-01 -0.1083248053902121E+01  0.1491461824453645E+04  0.1491461824453645E+04  0.1084272713501564E+01 0.  9
  -2 -1 0 0   0 502  0.4186376843981547E+01 -0.2563372324214521E+01 -0.2375229039587627E+01  0.2375229039587627E+01  0.4908831709518452E+01 0.  9
 -13 +1 1 2   0   0 -0.3560042888465791E+00 -0.4479725267354052E+02  0.4708187506739218E+03  0.4729452574794500E+03  0.0000000000000000E+00 0. -1
  13 +1 1 2   0   0 -0.1832806264002594E+02  0.4617503530099843E+02  0.6981008119508986E+03  0.6998662696627756E+03  0.0000000000000000E+00 0.  1
  21 +1 1 2 501 502  0.2291757095143833E+02 -0.5024403005574555E+01  0.3201670327892375E+03  0.3210255263510073E+03  0.0000000000000000E+00 0. -1
   #pdf1pdf2  0.3186182753370408E-03
</event>
<event>
  5   1  0.2401515482509494E+02  0.1169002776681820E+03  0.7546888109483510E-02  0.1137429366616644E+00
   2 -1 0 0 502   0  0.3796134157428145E+01 -0.2414185523909178E-01  0.1257313479369153E+04  0.1257313479369153E+04  0.3796210922797504E+01 0.  9
  21 -1 0 0 501 502  0.8786020785328999E+01  0.8013033054471575E+02 -0.1200154717660338E+02  0.1200154717660338E+02  0.8061057024017160E+02 0.  9
 -13 +1 1 2   0   0  0.2512335436449175E+02  0.3602834398282855E+01  0.1555196018270773E+03  0.1575769967434268E+03  0.0000000000000000E+00 0. -1
  13 +1 1 2   0   0 -0.5968880994484933E+02  0.1324273198302964E+03  0.6633306324899249E+03  0.6790488031574400E+03  0.0000000000000000E+00 0.  1
   2 +1 1 2 501   0  0.4714761052311471E+02 -0.5592396553910260E+02  0.4264616978755469E+03  0.4326892266448892E+03  0.0000000000000000E+00 0.  1
   #pdf1pdf2  0.5022989405963575E-06
</event>
<event>
  5   1  0.2401515482509494E+02  0.1133840810589276E+03  0.7546888109483510E-02  0.1142494946623644E+00
   2 -1 0 0 502   0 -0.9276214287102206E+01  0.5085656992624041E+01  0.1167348891180370E+04  0.1167348891180370E+04  0.1057884958522735E+02 0.  9
  21 -1 0 0 501 502  0.2734194289560126E+01 -0.3772378022024339E+01 -0.7256396209442231E+01  0.7256396209442231E+01  0.4659040067880451E+01 0.  9
 -13 +1 1 2   0   0  0.1198301552863848E+02  0.4960699759043325E+02  0.7109178358683372E+03  0.7127472316514578E+03  0.0000000000000000E+00 0. -1
  13 +1 1 2   0   0  0.3804400208426912E+02 -0.1167943176121797E+02  0.1841433650412406E+03  0.1883946233563060E+03  0.0000000000000000E+00 0.  1
   2 +1 1 2 501   0 -0.5656903761044968E+02 -0.3661428685861558E+02  0.2650312940613499E+03  0.2734634323820484E+03  0.0000000000000000E+00 0. -1
   #pdf1pdf2  0.1446609675511329E-04
</event>
<event>
  5  26  0.2401515482509494E+02  0.9436171816647797E+02  0.7546888109483510E-02  0.1173939531290594E+00
   2 -1 0 0 501   0 -0.2481290129869288E+01  0.6632462336889165E+01  0.1548483697208760E+04  0.1548483697208760E+04  0.7081409277738439E+01 0.  9
  -2 -1 0 0   0 502 -0.2385045522206725E+00 -0.2144107253952585E+01 -0.1204827808596075E+01  0.1204827808596075E+01  0.2157331763517627E+01 0.  9
 -13 +1 1 2   0   0  0.1731481948259504E+02 -0.7433136270317569E+00  0.1006211001863051E+04  0.1006360241543309E+04  0.0000000000000000E+00 0. -1
  13 +1 1 2   0   0 -0.5360616983986507E+01 -0.1409499274074974E+02  0.6861140400132854E+02  0.7024905546585174E+02  0.0000000000000000E+00 0.  1
  21 +1 1 2 501 502 -0.1467399718069849E+02  0.1932666145071808E+02  0.4724564635357848E+03  0.4730792280081954E+03  0.0000000000000000E+00 0.  1
   #pdf1pdf2  0.8088663166416600E-05
</event>
<event>
  5   2  0.2401515482509494E+02  0.9736022242392625E+02  0.7546888109483510E-02  0.1168456882395396E+00
   1 -1 0 0 502   0  0.2410399393492222E+00  0.6649481499244339E+00  0.2215867763987140E+04  0.2215867763987140E+04  0.7072879855118451E+00 0.  9
  21 -1 0 0 501 502  0.3235295045291049E+02 -0.6159333319816963E+02 -0.1930930162998204E+01  0.1930930162998204E+01  0.6957335766993876E+02 0.  9
 -13 +1 1 2   0   0 -0.4979368410641463E+01 -0.3860300731342097E+02  0.2893025774180170E+03  0.2919091769439883E+03  0.0000000000000000E+00 0.  1
  13 +1 1 2   0   0  0.1899377883434028E+02  0.6284485938186251E+01  0.1402187597126271E+04  0.1402330316270978E+04  0.0000000000000000E+00 0. -1
   1 +1 1 2 501   0  0.1857957996856090E+02 -0.2860986367301047E+02  0.5224466592798540E+03  0.5235592009351724E+03  0.0000000000000000E+00 0. -1
   #pdf1pdf2  0.3116648005946629E-05
</event>
<event>
  5   1  0.2401515482509494E+02  0.9208428902433509E+02  0.7546888109483510E-02  0.1178258587620173E+00
   2 -1 0 0 502   0  0.1193882193535487E+01 -0.1099766838637370E+01  0.1350628837560978E+04  0.1350628837560978E+04  0.1623219575845344E+01 0.  9
  21 -1 0 0 501 502 -0.2952683043682811E+02  0.2398450062950359E+01 -0.1964097988646970E+01  0.1964097988646970E+01  0.2962408274275620E+02 0.  9
 -13 +1 1 2   0   0 -0.2919593824023618E+02  0.4015815193401103E+02  0.1024499684603038E+04  0.1025702044322915E+04  0.0000000000000000E+00 0. -1
  13 +1 1 2   0   0  0.7904375962675751E+01 -0.2815211845116669E+02  0.2339047577065151E+03  0.2357253838906437E+03  0.0000000000000000E+00 0.  1
   2 +1 1 2 501   0 -0.7041385965732193E+01 -0.1070735025853135E+02  0.9026029726277829E+02  0.9116550733606644E+02  0.0000000000000000E+00 0. -1
   #pdf1pdf2  0.1418577075572373E-03
</event>
<event>
  5  27  0.2401515482509494E+02  0.9175922485610967E+02  0.7546888109483510E-02  0.1178886463353432E+00
   1 -1 0 0 501   0 -0.2711391614903079E+01 -0.1335062562368923E+01  0.8361809184822009E+03  0.8361809184822009E+03  0.3022256861156213E+01 0.  9
  -1 -1 0 0   0 502  0.4978705417825897E+01 -0.1378499960815239E+01 -0.4324613626308543E+01  0.4324613626308543E+01  0.5166020690962877E+01 0.  9
 -13 +1 1 2   0   0  0.4757746353270751E+02 -0.8944077492304455E+01  0.3958412429028325E+03  0.3987905479587671E+03  0.0000000000000000E+00 0. -1
  13 +1 1 2   0   0 -0.4403201072436065E+02 -0.3910189524992074E+01  0.1748974684349580E+03  0.1803974279625646E+03  0.0000000000000000E+00 0.  1
  21 +1 1 2 501 502 -0.1278139005424042E+01  0.1014070449411237E+02  0.2611175935181019E+03  0.2613175561871777E+03  0.0000000000000000E+00 0. -1
   #pdf1pdf2  0.2779089555160813E-04
</event>
<event>
  5   1  0.2401515482509494E+02  0.9369430340580487E+02  0.7546888109483510E-02  0.1175190998899964E+00
   2 -1 0 0 502   0  0.4409978558717905E+01 -0.1925483083969079E+02  0.9088285784602733E+03  0.9088285784602733E+03  0.1975339012811369E+02 0.  9
  21 -1 0 0 501 502 -0.5026761970986328E+01 -0.6662920885106091E+00 -0.3959465021598583E+01  0.3959465021598583E+01  0.5070727862956775E+01 0.  9
 -13 +1 1 2   0   0  0.2140273217223476E+02 -0.2140507470447037E+02  0.6735404836745579E+03  0.6742203180831157E+03  0.0000000000000000E+00 0. -1
  13 +1 1 2   0   0 -0.1948719346278810E+02 -0.1989178250657832E+02  0.6314854679351720E+02  0.6901574228013619E+02  0.0000000000000000E+00 0.  1
   2 +1 1 2 501   0 -0.2532322121715081E+01  0.2137573428284729E+02  0.1681800829705996E+03  0.1695519831186200E+03  0.0000000000000000E+00 0. -1
   #pdf1pdf2  0.3330637474235176E-05
</event>
<event>
  5  27  0.2401515482509494E+02  0.9248271168192417E+02  0.7546888109483510E-02  0.1177492962171584E+00
   1 -1 0 0 501   0 -0.1113859449309254E+01 -0.1295654704662203E+01  0.4074991953178375E+03  0.4074991953178375E+03  0.1708626344912431E+01 0.  9
  -1 -1 0 0   0 502 -0.3276354963145459E+00 -0.7870963787335968E-01 -0.7572181754775921E+01  0.7572181754775921E+01  0.3369573052174922E+00 0.  9
 -13 +1 1 2   0   0 -0.4749417004596138E+02  0.1780789177103044E+02  0.1209968724500900E+03  0.1311985531184959E+03  0.0000000000000000E+00 0.  1
  13 +1 1 2   0   0  0.3243422386302502E+02 -0.1195024901326144E+02  0.2296464309807496E+03  0.2322332245637388E+03  0.0000000000000000E+00 0. -1
  21 +1 1 2 501 502  0.1361845123731256E+02 -0.7232007100304568E+01  0.4928371013222198E+02  0.5163959939037866E+02  0.0000000000000000E+00 0. -1
   #pdf1pdf2  0.1554804818647576E-02
</event>
<event>
  5  26  0.2401515482509494E+02  0.9246413581498490E+02  0.7546888109483510E-02  0.1177528562304549E+00
   2 -1 0 0 501   0 -0.1277814440942521E+01 -0.4079029072413264E+00  0.1384620084499564E+04  0.1384620084499564E+04  0.1341340570927896E+01 0.  9
  -2 -1 0 0   0 502  0.1021122085915419E+00  0.1660272409522113E+00 -0.2203856805490982E+01  0.2203856805490982E+01  0.1949152325541700E+00 0.  9
 -13 +1 1 2   0   0 -0.1560894354586656E+02  0.3697165312534135E+02  0.8523075534425386E+03  0.8532518431908861E+03  0.0000000000000000E+00 0.  1
  13 +1 1 2   0   0  0.2930636962504285E+02 -0.3359156150839622E+02  0.4292126789593985E+03  0.4315214711745821E+03  0.0000000000000000E+00 0. -1
  21 +1 1 2 501 502 -0.1487312831152728E+02 -0.3621967283234254E+01  0.1008959952921359E+03  0.1020506269395866E+03  0.0000000000000000E+00 0.  1
   #pdf1pdf2  0.2806492557247840E-02
</event>
<event>
  5   1  0.2401515482509494E+02  0.9305872869929856E+02  0.7546888109483510E-02  0.1176393665434451E+00
   2 -1 0 0 502   0  0.9010735047726145E+01  0.1541376081096683E+02  0.1056125354555311E+04  0.1056125354555311E+04  0.1785433752447895E+02 0.  9
  21 -1 0 0 501 502  0.5910347161737159E+01 -0.9063024697853940E+01 -0.3222782890275589E+01  0.3222782890275589E+01  0.1081991775597971E+02 0.  9
 -13 +1 1 2   0   0  0.3780977085527859E+02  0.4312233461397280E+02  0.3370198171885559E+03  0.3418646979325238E+03  0.0000000000000000E+00 0.  1
  13 +1 1 2   0   0 -0.1227417107305675E+02 -0.2154099823077025E+02  0.5512610660175338E+03  0.5518182968940922E+03  0.0000000000000000E+00 0. -1
   2 +1 1 2 501   0 -0.1061451757275853E+02 -0.1523060027008966E+02  0.1646216884589461E+03  0.1656651426189709E+03  0.0000000000000000E+00 0. -1
   #pdf1pdf2  0.1301414992692188E-05
</event>
<event>
  5  27  0.2401515482509494E+02  0.1043991645156871E+03  0.7546888109483510E-02  0.1156415604097689E+00
   1 -1 0 0 501   0  0.4250261739648600E+01  0.9392870747240345E-01  0.9690685623668625E+03  0.9690685623668625E+03  0.4251299502223782E+01 0.  9
  -1 -1 0 0   0 502  0.1151866657484650E+02 -0.7480435470636702E+01 -0.7107094139148393E+01  0.7107094139148393E+01  0.1373450379492633E+02 0.  9
 -13 +1 1 2   0   0 -0.1528728561241166E+02  0.5099200268982476E+02  0.6805293030798002E+03  0.6826082462071441E+03  0.0000000000000000E+00 0. -1
  13 +1 1 2   0   0  0.3168499721623720E+02 -0.7550344387657837E+01  0.1179534866355392E+03  0.1223681811519871E+03  0.0000000000000000E+00 0.  1
  21 +1 1 2 501 502 -0.6287832893304337E+00 -0.5082816506533122E+02  0.1634786785123746E+03  0.1711992291468797E+03  0.0000000000000000E+00 0. -1
   #pdf1pdf2  0.1041071660436111E-05
</event>
<event>
  5   2  0.2401515482509494E+02  0.9576070715509796E+02  0.7546888109483510E-02  0.1171353532374273E+00
   1 -1 0 0 502   0  0.1247047858858443E+01 -0.1767260456312035E+01  0.9904343479137038E+03  0.9904343479137038E+03  0.2162946574173216E+01 0.  9
  21 -1 0 0 501 502  0.1151796731474645E+02  0.3191532884631707E+02 -0.4246865322977098E+01  0.4246865322977098E+01  0.3393010147983831E+02 0.  9
 -13 +1 1 2   0   0 -0.2151910356501789E+02  0.1977812756902683E+01  0.6873406293611135E+03  0.6876802486127365E+03  0.0000000000000000E+00 0. -1
  13 +1 1 2   0   0  0.6049283438907400E+01  0.3576099283065942E+02  0.1079954114817144E+03  0.1139230061904246E+03  0.0000000000000000E+00 0.  1
   1 +1 1 2 501   0  0.2823483529971539E+02 -0.7590737197557061E+01  0.1908514417478988E+03  0.1930779584335199E+03  0.0000000000000000E+00 0. -1
   #pdf1pdf2  0.2260158586807074E-04
</event>
<event>
  5  27  0.2401515482509494E+02  0.9335537337844174E+02  0.7546888109483510E-02  0.1175831005039945E+00
   1 -1 0 0 501   0  0.2077704269750380E+01  0.6190160102904526E+00  0.4500793104161079E+03  0.4500793104161079E+03  0.2167956607853319E+01 0.  9
  -1 -1 0 0   0 502 -0.1325738656010593E+01 -0.2286546819979598E+01 -0.8063296371325482E+01  0.8063296371325482E+01  0.2643081410777879E+01 0.  9
 -13 +1 1 2   0   0  0.3066184191618528E+02 -0.2849040079939139E+02  0.1196847054693139E+03  0.1267922718886270E+03  0.0000000000000000E+00 0.  1
  13 +1 1 2   0   0 -0.4840876755850720E+02  0.1922491357467363E+02  0.1725585725624543E+03  0.1802483482400853E+03  0.0000000000000000E+00 0. -1
  21 +1 1 2 501 502  0.1849889125606170E+02  0.7597956415028613E+01  0.1497727360130143E+03  0.1511019866587211E+03  0.0000000000000000E+00 0.  1
   #pdf1pdf2  0.2138532877981347E-03
</event>
<event>
  5   1  0.2401515482509494E+02  0.9375610687820790E+02  0.7546888109483510E-02  0.1175074621416536E+00
   2 -1 0 0 502   0  0.1842306883324746E+00  0.2142485942060712E+01  0.4245292379077458E+03  0.4245292379077458E+03  0.2150392280131984E+01 0.  9
  21 -1 0 0 501 502 -0.1523346261931399E+02 -0.1066684703895807E+02 -0.4335376955009692E+01  0.4335376955009692E+01  0.1859677415915366E+02 0.  9
 -13 +1 1 2   0   0 -0.1692165084626605E+02 -0.4057626641135643E+02  0.2271284659884545E+03  0.2313441499703781E+03  0.0000000000000000E+00 0.  1
  13 +1 1 2   0   0 -0.1205395789456553E+02  0.1528957293892090E+02  0.7673848775747112E+02  0.7916984555297607E+02  0.0000000000000000E+00 0. -1
   2 +1 1 2 501   0  0.1392637680985007E+02  0.1676233237553817E+02  0.1163269072068105E+03  0.1183506193394012E+03  0.0000000000000000E+00 0.  1
   #pdf1pdf2  0.3117012260358022E-03
</event>
<event>
  5   1  0.2401515482509494E+02  0.9197307861499465E+02  0.7546888109483510E-02  0.1178473068528791E+00
   2 -1 0 0 502   0  0.1386296458852018E+01  0.1607782060263688E+01  0.1009921837954479E+04  0.1009921837954479E+04  0.2122918044845678E+01 0.  9
  21 -1 0 0 501 502  0.4033097127519128E+01 -0.6187978999415550E+00 -0.2564926827795152E+01  0.2564926827795152E+01  0.4080292058293759E+01 0.  9
 -13 +1 1 2   0   0 -0.9795112041532319E+01  0.3481551185940944E+02  0.7873928696679340E+03  0.7882230618865722E+03  0.0000000000000000E+00 0. -1
  13 +1 1 2   0   0  0.2089004287592883E+02 -0.2326491571860520E+02  0.1723469650169060E+03  0.1751602881514259E+03  0.0000000000000000E+00 0.  1
   2 +1 1 2 501   0 -0.5675537248025364E+01 -0.1056161198048211E+02  0.4761707644184423E+02  0.4910341474427643E+02  0.0000000000000000E+00 0. -1
   #pdf1pdf2  0.2611894977648092E-02
</event>
<event>
  5  26  0.2401515482509494E+02  0.1016953064965507E+03  0.7546888109483510E-02  0.1160911913386129E+00
   2 -1 0 0 501   0 -0.2318891925624886E+01  0.7337415354336569E+00  0.5246084218052280E+03  0.5246084218052280E+03  0.2432208133270842E+01 0.  9
  -2 -1 0 0   0 502  0.1444571672885846E+01  0.3100947993114779E+01 -0.9753958109259012E+01  0.9753958109259012E+01  0.3420915926196783E+01 0.  9
 -13 +1 1 2   0   0 -0.3965303012611419E+02  0.5163971732501807E+01  0.1161119316951088E+03  0.1228047640940945E+03  0.0000000000000000E+00 0. -1
  13 +1 1 2   0   0  0.3144529839991622E+02 -0.4574626792280120E+02  0.2531046272872572E+03  0.2591205900243087E+03  0.0000000000000000E+00 0.  1
  21 +1 1 2 501 502  0.7333411473458932E+01  0.4441698571884783E+02  0.1456379047136030E+03  0.1524370257960838E+03  0.0000000000000000E+00 0. -1
   #pdf1pdf2  0.1970825452684565E-03
</event>
<event>
  5   2  0.2401515482509494E+02  0.9223064858217869E+02  0.7546888109483510E-02  0.1177976834043148E+00
   1 -1 0 0 502   0 -0.3076282731601856E+00  0.1523165100408130E+01  0.7113979158187713E+03  0.7113979158187713E+03  0.1553919907057254E+01 0.  9
  21 -1 0 0 501 502 -0.1682761147613719E+01 -0.4351522304045955E+02 -0.4785226172296092E+01  0.4785226172296092E+01  0.4354774760353123E+02 0.  9
 -13 +1 1 2   0   0  0.2173130668588334E+01  0.1422970925625445E+02  0.5087641510332813E+03  0.5089677479949351E+03  0.0000000000000000E+00 0. -1
  13 +1 1 2   0   0  0.6158829911106032E+01 -0.4702101673141586E+02  0.1617729640203279E+03  0.1685805418435127E+03  0.0000000000000000E+00 0.  1
   1 +1 1 2 501   0 -0.1032235000046827E+02 -0.9200750464890007E+01  0.3607557459286591E+02  0.3863485215261957E+02  0.0000000000000000E+00 0. -1
   #pdf1pdf2  0.3078289539449563E-04
</event>
<event>
  5  26  0.2401515482509494E+02  0.9211265670175960E+02  0.7546888109483510E-02  0.1178203931850860E+00
   2 -1 0 0 501   0  0.1199879678957633E+02  0.1661124923508327E+01  0.7917561968858665E+03  0.7917561968858665E+03  0.1211323492750998E+02 0.  9
  -2 -1 0 0   0 502 -0.2134376581736370E+01 -0.1174213576349729E+02 -0.2971861606396946E+01  0.2971861606396946E+01  0.1193454296071143E+02 0.  9
 -13 +1 1 2   0   0 -0.4626818702405203E+01 -0.4650638234098778E+02  0.4928568315158215E+03  0.4950677806336885E+03  0.0000000000000000E+00 0. -1
  13 +1 1 2   0   0  0.1804798036528023E+01  0.3350853702268163E+02  0.1906112214058194E+03  0.1935425459044378E+03  0.0000000000000000E+00 0.  1
  21 +1 1 2 501 502  0.1268644087371714E+02  0.2916834478317183E+01  0.1053162823578286E+03  0.1061177319541372E+03  0.0000000000000000E+00 0.  1
   #pdf1pdf2  0.3563169198807106E-06
</event>
<event>
  5  26  0.2401515482509494E+02  0.9209967050748863E+02  0.7546888109483510E-02  0.1178228949509235E+00
   2 -1 0 0 501   0 -0.2986739913173318E+01  0.1618341866463034E+01  0.9983002223202800E+03  0.9983002223202800E+03  0.3397005402658291E+01 0.  9
  -2 -1 0 0   0 502  0.2294451538052699E+02 -0.6851313879461260E+01 -0.3166107815377372E+01  0.3166107815377372E+01  0.2394559015606294E+02 0.  9
 -13 +1 1 2   0   0  0.1016991244292620E+02 -0.4158749416507749E+02  0.3555141873199485E+03  0.3580827895554191E+03  0.0000000000000000E+00 0.  1
  13 +1 1 2   0   0  0.2021170114925489E+01  0.4668602589536194E+02  0.5975123573019810E+03  0.5993368729446788E+03  0.0000000000000000E+00 0. -1
  21 +1 1 2 501 502  0.7766692909501987E+01 -0.1033150374328268E+02  0.4210756988297328E+02  0.4404666763555957E+02  0.0000000000000000E+00 0.  1
   #pdf1pdf2  0.1763034073957486E-05
</event>
<event>
  5  27  0.2401515482509494E+02  0.9442955724760292E+02  0.7546888109483510E-02  0.1173812975824740E+00
   1 -1 0 0 501   0 -0.5248360963902096E+01 -0.2121833003489857E+01  0.9082673543021591E+03  0.9082673543021591E+03  0.5661048321831401E+01 0.  9
  -1 -1 0 0   0 502 -0.4725729396575850E+02  0.7875531348135404E+02 -0.9688455567879128E+01  0.9688455567879128E+01  0.9184580139838978E+02 0.  9
 -13 +1 1 2   0   0 -0.5889532368229926E+02  0.6908648989130809E+02  0.2355996173248992E+03  0.2524852112912428E+03  0.0000000000000000E+00 0.  1
  13 +1 1 2   0   0  0.5458033528094312E+01  0.3205791709998489E+02  0.3346184005708286E+03  0.3361948455573981E+03  0.0000000000000000E+00 0. -1
  21 +1 1 2 501 502  0.9316352245443476E+00 -0.2451092651342880E+02  0.3283608808385522E+03  0.3292757530213973E+03  0.0000000000000000E+00 0.  1
   #pdf1pdf2  0.6498046328743501E-09
</event>
<event>
  5   2  0.2401515482509494E+02  0.1343247969268366E+03  0.7546888109483510E-02  0.1114956675240162E+00
   1 -1 0 0 502   0  0.2765437537180124E+00 -0.2941579448859545E+01  0.1947925265793068E+04  0.1947925265793068E+04  0.2954550067552296E+01 0.  9
  21 -1 0 0 501 502  0.1069289050909274E+01  0.1372370093094530E+01 -0.1005814096931521E+02  0.1005814096931521E+02  0.1739763991699663E+01 0.  9
 -13 +1 1 2   0   0 -0.2442787899159756E+02 -0.2073632982568965E+02  0.1185664097371153E+04  0.1186096989474984E+04  0.0000000000000000E+00 0.  1
  13 +1 1 2   0   0 -0.4349338724218752E+02 -0.5104635573656051E+02  0.4210605278312266E+03  0.4263676503503679E+03  0.0000000000000000E+00 0. -1
   1 +1 1 2 501   0  0.6926709903841237E+02  0.7021347620648515E+02  0.3311424996213730E+03  0.3455187669370317E+03  0.0000000000000000E+00 0. -1
   #pdf1pdf2  0.3856723184449248E-04
</event>
<event>
  5  26  0.2401515482509494E+02  0.9177246196776166E+02  0.7546888109483510E-02  0.1178860838462738E+00
   2 -1 0 0 501   0  0.6948807474386791E-02 -0.6304381098494450E+00  0.7884388668519368E+03  0.7884388668519368E+03  0.6304764042181571E+00 0.  9
  -2 -1 0 0   0 502 -0.1146139660382599E+02 -0.1085198803594839E+02 -0.3726535428443504E+01  0.3726535428443504E+01  0.1578382895379195E+02 0.  9
 -13 +1 1 2   0   0  0.2185566351985822E+02 -0.3623198015817219E+02  0.3012374634110115E+03  0.3041947333146580E+03  0.0000000000000000E+00 0.  1
  13 +1 1 2   0   0 -0.4029659104877761E+02  0.3237097496457749E+02  0.3180252739730141E+03  0.3221983397783428E+03  0.0000000000000000E+00 0. -1
  21 +1 1 2 501 502  0.6986479732567782E+01 -0.7621420952203130E+01  0.1654495940394677E+03  0.1657723291873795E+03  0.0000000000000000E+00 0. -1
   #pdf1pdf2  0.8293124024981848E-04
</event>
<event>
  5   1  0.2401515482509494E+02  0.1161641664112425E+03  0.7546888109483510E-02  0.1138473393098036E+00
   2 -1 0 0 502   0 -0.4689521749336776E+00  0.5261269753995663E-02  0.1299227115409270E+04  0.1299227115409270E+04  0.4689816876323114E+00 0.  9
  21 -1 0 0 501 502 -0.1293704809148142E+01 -0.2340114209683530E+01 -0.7112223154478020E+01  0.7112223154478020E+01  0.2673912236326354E+01 0.  9
 -13 +1 1 2   0   0 -0.8787785059278713E+02 -0.3243263322952456E+02  0.6308089275699029E+03  0.6377258779639573E+03  0.0000000000000000E+00 0.  1
  13 +1 1 2   0   0  0.1588216626128003E+02  0.1440868827014852E+02  0.2618731672243931E+03  0.2627497083061220E+03  0.0000000000000000E+00 0. -1
   2 +1 1 2 501   0  0.7023302734742528E+02  0.1568909201944651E+02  0.3994327974604956E+03  0.4058637522936683E+03  0.0000000000000000E+00 0. -1
   #pdf1pdf2  0.9429826138875693E-02
</event>
<event>
  5  26  0.2401515482509494E+02  0.9235648745684455E+02  0.7546888109483510E-02  0.1177735051889486E+00
   2 -1 0 0 501   0 -0.9539103433715911E-01  0.1702609686171521E+00  0.8282061948718476E+03  0.8282061948718476E+03  0.1951621040734187E+00 0.  9
  -2 -1 0 0   0 502  0.2695618609126341E+02  0.2002862214203062E+01 -0.4014452718067089E+01  0.4014452718067089E+01  0.2703049066583708E+02 0.  9
 -13 +1 1 2   0   0 -0.1605789603867326E+02 -0.2100634363970607E+02  0.9248175953905992E+02  0.9618730865212291E+02  0.0000000000000000E+00 0. -1
  13 +1 1 2   0   0  0.4459912671620668E+02  0.3772625658010785E+02  0.6727789092156254E+03  0.6753101607593085E+03  0.0000000000000000E+00 0.  1
  21 +1 1 2 501 502 -0.1680435620607174E+01 -0.1454678975758156E+02  0.5893107339909523E+02  0.6072317817848333E+02  0.0000000000000000E+00 0. -1
   #pdf1pdf2  0.3084375437525559E-04
</event>
<event>
  5  26  0.2401515482509494E+02  0.9242422110391767E+02  0.7546888109483510E-02  0.1177605089421851E+00
   2 -1 0 0 501   0 -0.1610080834707824E+02  0.5016328852817988E+01  0.7431820163057431E+03  0.7431820163057431E+03  0.1686415087067708E+02 0.  9
  -2 -1 0 0   0 502 -0.4557847758361917E+01 -0.9967045626673578E+01 -0.4400362554632290E+01  0.4400362554632290E+01  0.1095974336892053E+02 0.  9
 -13 +1 1 2   0   0 -0.2458170560518099E+02  0.2552182680385604E+02  0.3840132110512599E+03  0.3856446163967096E+03  0.0000000000000000E+00 0.  1
  13 +1 1 2   0   0  0.1584448666021521E+02 -0.3968276417521764E+02  0.1338169036285370E+03  0.1404732473705967E+03  0.0000000000000000E+00 0. -1
  21 +1 1 2 501 502 -0.1192143716047437E+02  0.9210220597506012E+01  0.2209515390713140E+03  0.2214645150930691E+03  0.0000000000000000E+00 0.  1
   #pdf1pdf2  0.1343166207785628E-06
</event>
<event>
  5  27  0.2401515482509494E+02  0.9634652851213973E+02  0.7546888109483510E-02  0.1170285321141117E+00
   1 -1 0 0 501   0  0.3515733081311829E+01  0.9610702250145602E+00  0.7059777902546664E+03  0.7059777902546664E+03  0.3644727023583510E+01 0.  9
  -1 -1 0 0   0 502  0.2442040264610221E+02  0.1265636718904700E+02 -0.5632933405896334E+01  0.5632933405896334E+01  0.2750526669243077E+02 0.  9
 -13 +1 1 2   0   0  0.3965475546860209E+02 -0.2832848439841610E+02  0.3881565886130686E+03  0.3912039620751826E+03  0.0000000000000000E+00 0. -1
  13 +1 1 2   0   0 -0.3480802757421535E+02  0.2110737620534155E+02  0.1624872170049816E+03  0.1675088529120331E+03  0.0000000000000000E+00 0.  1
  21 +1 1 2 501 502  0.2308940783302731E+02  0.2083854560713611E+02  0.1497010512307198E+03  0.1528979086733470E+03  0.0000000000000000E+00 0. -1
   #pdf1pdf2  0.4730967582787216E-06
</event>
<event>
  5   2  0.2401515482509494E+02  0.1204567844372840E+03  0.7546888109483510E-02  0.1132502633894081E+00
   1 -1 0 0 502   0 -0.3409342115392066E+00  0.2026793911367599E+01  0.8236513650482665E+03  0.8236513650482665E+03  0.2055268764846736E+01 0.  9
  21 -1 0 0 501 502  0.1677469455800169E+02 -0.9328372041144435E+01 -0.1113970798836975E+02  0.1113970798836975E+02  0.1919398089121318E+02 0.  9
 -13 +1 1 2   0   0 -0.2621014510989189E+02 -0.3358185708580671E+02  0.1064191270327787E+03  0.1146287199197122E+03  0.0000000000000000E+00 0.  1
  13 +1 1 2   0   0 -0.3084114400899384E+02  0.5446709507288889E+02  0.2874867101946942E+03  0.2942217686508438E+03  0.0000000000000000E+00 0. -1
   1 +1 1 2 501   0  0.7348504946534823E+02 -0.2818681611685901E+02  0.4186058198324238E+03  0.4259405844660802E+03  0.0000000000000000E+00 0. -1
   #pdf1pdf2  0.6094368487107492E-04
</event>
<event>
  5  26  0.2401515482509494E+02  0.9764846572290132E+02  0.7546888109483510E-02  0.1167941522333499E+00
   2 -1 0 0 501   0  0.5503739331166539E+01  0.3047537351327947E+01  0.1906706169959906E+04  0.1906706169959906E+04  0.6291154944298261E+01 0.  9
  -2 -1 0 0   0 502 -0.2590089247267220E+01 -0.1416109204517601E+01 -0.2656434415582165E+01  0.2656434415582165E+01  0.2951936243879387E+01 0.  9
 -13 +1 1 2   0   0  0.2520790897584533E+02  0.7825312610166302E+01  0.1282482463865078E+03  0.1309361939785777E+03  0.0000000000000000E+00 0.  1
  13 +1 1 2   0   0 -0.5679464476410185E+02 -0.1163983832553526E+02  0.8553713168201018E+03  0.8573337781451750E+03  0.0000000000000000E+00 0. -1
  21 +1 1 2 501 502  0.3450038587215585E+02  0.5445953862179302E+01  0.9204301723377142E+03  0.9210926322517356E+03  0.0000000000000000E+00 0. -1
   #pdf1pdf2  0.2098528972353023E-05
</event>
<event>
  5   1  0.2401515482509494E+02  0.1020903807812293E+03  0.7546888109483510E-02  0.1160245336939801E+00
   2 -1 0 0 502   0 -0.4855919849358618E+00 -0.2827805275420810E+00  0.9820058697122761E+03  0.9820058697122761E+03  0.5619291793375103E+00 0.  9
  21 -1 0 0 501 502 -0.4443938443614480E+01  0.2099981504740182E+01 -0.6480780617962380E+01  0.6480780617962380E+01  0.4915130843719781E+01 0.  9
 -13 +1 1 2   0   0  0.4019410724278949E+02  0.6621272307045462E+02  0.5451863438224201E+03  0.5506612755986275E+03  0.0000000000000000E+00 0. -1
  13 +1 1 2   0   0 -0.2055774625632920E+02 -0.2561827350852183E+02  0.2273816582010160E+03  0.2297418885509142E+03  0.0000000000000000E+00 0.  1
   2 +1 1 2 501   0 -0.2456589141501063E+02 -0.3877724858473469E+02  0.2029570870708776E+03  0.2080834861806967E+03  0.0000000000000000E+00 0.  1
   #pdf1pdf2  0.8432578740214608E-02
</event>
<event>
  5   2  0.2401515482509494E+02  0.9187811336037664E+02  0.7546888109483510E-02  0.1178656487808305E+00
   1 -1 0 0 502   0 -0.5330859679131855E+00  0.2433679797248842E+00  0.6297036311623764E+03  0.6297036311623764E+03  0.5860107701581172E+00 0.  9
  21 -1 0 0 501 502 -0.1195613392189711E+01 -0.1435000973902152E+02 -0.2666717288997122E+01  0.2666717288997122E+01  0.1439973162574899E+02 0.  9
 -13 +1 1 2   0   0  0.3197943331225546E+02 -0.3615077355848801E+01  0.2410556744722158E+03  0.2431945540807125E+03  0.0000000000000000E+00 0. -1
  13 +1 1 2   0   0 -0.3851915222879940E+02 -0.3350893136459785E+00  0.3006709676153913E+03  0.3031284680462217E+03  0.0000000000000000E+00 0.  1
   1 +1 1 2 501   0  0.4811019556441046E+01 -0.1015647508980186E+02  0.8531027178577222E+02  0.8604732632443931E+02  0.0000000000000000E+00 0. -1
   #pdf1pdf2  0.1579945905448565E-02
</event>
<event>
  5   1  0.2401515482509494E+02  0.9184183529916747E+02  0.7546888109483510E-02  0.1178726622057880E+00
   2 -1 0 0 502   0 -0.6919833014816132E-01 -0.8170558957684427E+00  0.1081865950116691E+04  0.1081865950116691E+04  0.8199809422817498E+00 0.  9
  21 -1 0 0 501 502  0.4454484189970140E+01  0.6122429552798048E+01 -0.2326719307732047E+01  0.2326719307732047E+01  0.7571431372446615E+01 0.  9
 -13 +1 1 2   0   0 -0.3047878160573831E+02 -0.1050720707328749E+02  0.8808994259552344E+03  0.8814891696310924E+03  0.0000000000000000E+00 0. -1
  13 +1 1 2   0   0  0.2710291156367918E+02  0.8105483290547625E+01  0.1190085813429351E+03  0.1223246054882662E+03  0.0000000000000000E+00 0.  1
   2 +1 1 2 501   0  0.7761155901881109E+01  0.7707097439769465E+01  0.7963122351078925E+02  0.8037889430506419E+02  0.0000000000000000E+00 0. -1
   #pdf1pdf2  0.6052051497500564E-02
</event>
<event>
  5  26  0.2401515482509494E+02  0.9304363382866937E+02  0.7546888109483510E-02  0.1176422359392260E+00
   2 -1 0 0 501   0  0.6008480810882685E+00 -0.1770807161041054E+00  0.7570345676692110E+03  0.7570345676692110E+03  0.6263992309728654E+00 0.  9
  -2 -1 0 0   0 502  0.2850420280446513E+02 -0.2664047064220020E+02 -0.4865081574984983E+01  0.4865081574984983E+01  0.3901543609337219E+02 0.  9
 -13 +1 1 2   0   0  0.3797369789791256E+02 -0.4159721646709619E+02  0.4929005932911725E+03  0.4961081787439533E+03  0.0000000000000000E+00 0.  1
  13 +1 1 2   0   0 -0.2264878344645017E+02  0.2710597098936069E+02  0.2139501537829871E+03  0.2168464188282667E+03  0.0000000000000000E+00 0. -1
  21 +1 1 2 501 502  0.1378013643409101E+02 -0.1232630588056881E+02  0.4531873902006646E+02  0.4894505167197601E+02  0.0000000000000000E+00 0.  1
   #pdf1pdf2  0.6836080640886966E-05
</event>
<event>
  5  26  0.2401515482509494E+02  0.9288740649215116E+02  0.7546888109483510E-02  0.1176719691617023E+00
   2 -1 0 0 501   0  0.3569731285702984E-01 -0.4765385532817720E+00  0.1468770286072946E+04  0.1468770286072946E+04  0.4778737185796023E+00 0.  9
  -2 -1 0 0   0 502 -0.7664827825886675E+01 -0.4051600605501267E+01 -0.2095238156994216E+01  0.2095238156994216E+01  0.8669778144046415E+01 0.  9
 -13 +1 1 2   0   0  0.4078289110644808E+02 -0.2844450135995176E+02  0.5429609839462456E+03  0.5452329446690578E+03  0.0000000000000000E+00 0. -1
  13 +1 1 2   0   0 -0.3116654935751868E+02  0.2783760588909843E+02  0.6250954254843206E+03  0.6264906839386482E+03  0.0000000000000000E+00 0.  1
  21 +1 1 2 501 502 -0.1724547226195904E+02 -0.3921243687929712E+01  0.2986186384853856E+03  0.2991418956222340E+03  0.0000000000000000E+00 0. -1
   #pdf1pdf2  0.2913311566335589E-03
</event>
<event>
  5  26  0.2401515482509494E+02  0.9230578677728556E+02  0.7546888109483510E-02  0.1177832414397005E+00
   2 -1 0 0 501   0 -0.2211231081142506E+00  0.7367704304286452E+00  0.1856652564037851E+04  0.1856652564037851E+04  0.7692373470497371E+00 0.  9
  -2 -1 0 0   0 502 -0.1389431566679384E+02 -0.1009087160716181E+02 -0.1467530016538860E+01  0.1467530016538860E+01  0.1717200330889605E+02 0.  9
 -13 +1 1 2   0   0 -0.3656037314197184E+02 -0.1888341966717095E+02  0.1222092017770080E+04  0.1222784586229296E+04  0.0000000000000000E+00 0. -1
  13 +1 1 2   0   0  0.3676320161272520E+02  0.9769477636683837E+01  0.5088779390194327E+03  0.5102976900856763E+03  0.0000000000000000E+00 0.  1
  21 +1 1 2 501 502 -0.1431826724566145E+02 -0.2401591462460484E+00  0.1242150772317998E+03  0.1250378177394171E+03  0.0000000000000000E+00 0. -1
   #pdf1pdf2  0.2636514319045995E-04
</event>
<event>
  5   1  0.2401515482509494E+02  0.9344005667821037E+02  0.7546888109483510E-02  0.1175670811559176E+00
   2 -1 0 0 502   0  0.6840575266382369E+01  0.6002839096119915E+01  0.8295977423525003E+03  0.8295977423525003E+03  0.9100964080192162E+01 0.  9
  21 -1 0 0 501 502 -0.1274372584751362E+02 -0.1746736473893301E+02 -0.5576799095262049E+01  0.5576799095262049E+01  0.2162201145591008E+02 0.  9
 -13 +1 1 2   0   0  0.9593920446609582E+01 -0.3190883135901041E+02  0.2828675554223116E+03  0.2848232271757838E+03  0.0000000000000000E+00 0. -1
  13 +1 1 2   0   0 -0.2544602586205542E+02  0.3824247052305132E+02  0.1167932140176444E+03  0.1255015602470747E+03  0.0000000000000000E+00 0.  1
   2 +1 1 2 501   0  0.9948954834314588E+01 -0.1779816480685401E+02  0.4243601738172823E+03  0.4248497540249037E+03  0.0000000000000000E+00 0. -1
   #pdf1pdf2  0.4145011928446677E-05
</event>
<event>
  5  26  0.2401515482509494E+02  0.9212487188859674E+02  0.7546888109483510E-02  0.1178180403736861E+00
   2 -1 0 0 501   0 -0.1648116856451789E+01  0.8544384625245371E+00  0.4665472044748155E+03  0.4665472044748155E+03  0.1856435902142010E+01 0.  9
  -2 -1 0 0   0 502 -0.6622500505490788E+01 -0.8460007908212933E+00 -0.5902621519267078E+01  0.5902621519267078E+01  0.6676318617568817E+01 0.  9
 -13 +1 1 2   0   0  0.4015314837261486E+02  0.1749039429695220E+02  0.2454114876347275E+03  0.2492889638150596E+03  0.0000000000000000E+00 0.  1
  13 +1 1 2   0   0 -0.3802869321860094E+02 -0.2545984285146010E+02  0.1721435645906193E+03  0.1781229685804170E+03  0.0000000000000000E+00 0. -1
  21 +1 1 2 501 502 -0.1039507251595650E+02  0.7977886226211148E+01  0.4308953073020160E+02  0.4503789359860596E+02  0.0000000000000000E+00 0. -1
   #pdf1pdf2  0.1270848714060817E-03
</event>
<event>
  5   9  0.2401515482509494E+02  0.1002184515641869E+03  0.7546888109483510E-02  0.1163433946448652E+00
  21 -1 0 0 501 502 -0.4744811882822631E-02 -0.3110600799784779E+01  0.6389983974046862E+03  0.6389983974046862E+03  0.3110604418575513E+01 0.  9
   4 -1 0 0 502   0 -0.1444219347160906E+02  0.2576099811834188E+02 -0.7147487581336359E+01  0.7147487581336359E+01  0.2953313353378882E+02 0.  9
 -13 +1 1 2   0   0 -0.4028571736331057E+02  0.6234686657457503E+01  0.9426190428401250E+02  0.1026991574475738E+03  0.0000000000000000E+00 0.  1
  13 +1 1 2   0   0 -0.1164996781315355E+02  0.3438913746507738E+02  0.3070139069647452E+03  0.3091534790284539E+03  0.0000000000000000E+00 0. -1
   4 +1 1 2 501   0  0.3748874689297224E+02 -0.1797342680397777E+02  0.2305750985745922E+03  0.2342932485099948E+03  0.0000000000000000E+00 0.  1
   #pdf1pdf2  0.6975184434228287E-06
</event>
<event>
  5   1  0.2401515482509494E+02  0.9802668382903336E+02  0.7546888109483510E-02  0.1167268345090456E+00
   2 -1 0 0 502   0 -0.2115977648447757E+01  0.5336433887901850E+00  0.8017544652522065E+03  0.8017544652522065E+03  0.2182232039708420E+01 0.  9
  21 -1 0 0 501 502 -0.2075280136604157E+02 -0.1555525508318327E+02 -0.5726457129529712E+01  0.5726457129529712E+01  0.2593539522045646E+02 0.  9
 -13 +1 1 2   0   0  0.2694011312161597E+02 -0.1509533078954412E+02  0.3633020276769805E+03  0.3646121254440899E+03  0.0000000000000000E+00 0.  1
  13 +1 1 2   0   0 -0.4480373763742338E+02  0.3569522035101607E+02  0.2958591114148730E+03  0.3013538409733463E+03  0.0000000000000000E+00 0. -1
   2 +1 1 2 501   0 -0.5005154498681922E+01 -0.3562150125586504E+02  0.1368668690308232E+03  0.1415149559643000E+03  0.0000000000000000E+00 0. -1
   #pdf1pdf2  0.1080373388516498E-03
</event>
<event>
  5  26  0.2401515482509494E+02  0.9235489266414572E+02  0.7546888109483510E-02  0.1177738113366737E+00
   2 -1 0 0 501   0 -0.1150682612343180E+01  0.2040389020481653E+01  0.1251137708010012E+04  0.1251137708010012E+04  0.2342489664705270E+01 0.  9
  -2 -1 0 0   0 502  0.1314584904476544E+02 -0.1978989585221894E+02 -0.2694873956253101E+01  0.2694873956253101E+01  0.2375822646893982E+02 0.  9
 -13 +1 1 2   0   0  0.2307377346116409E+02 -0.3307147936970996E+02  0.1071210650687732E+04  0.1071969393180735E+04  0.0000000000000000E+00 0.  1
  13 +1 1 2   0   0 -0.1187662289195714E+01  0.2610657229527128E+02  0.1114371024091665E+03  0.1144604361867998E+03  0.0000000000000000E+00 0. -1
  21 +1 1 2 501 502 -0.9890944739546120E+01 -0.1078459975729860E+02  0.6579508095686037E+02  0.6740275259873064E+02  0.0000000000000000E+00 0.  1
   #pdf1pdf2  0.3377540173094430E-05
</event>
<event>
  5  26  0.2401515482509494E+02  0.9432661413357732E+02  0.7546888109483510E-02  0.1174005065534064E+00
   2 -1 0 0 501   0 -0.7669425810796244E+01 -0.6754165437591519E+00  0.4133598801570430E+03  0.4133598801570430E+03  0.7699109024743784E+01 0.  9
  -2 -1 0 0   0 502 -0.2147142169071837E+00  0.1580392938045118E+01 -0.8451541181925485E+01  0.8451541181925485E+01  0.1594911920315647E+01 0.  9
 -13 +1 1 2   0   0  0.3269034715275458E+01  0.4984603629388368E+02  0.1717485151156084E+03  0.1788654979771035E+03  0.0000000000000000E+00 0.  1
  13 +1 1 2   0   0  0.1179531087674819E+02 -0.4148523516815649E+02  0.1286607582796840E+03  0.1356972542711888E+03  0.0000000000000000E+00 0. -1
  21 +1 1 2 501 502 -0.2294848561972707E+02 -0.7455824731441218E+01  0.1044990655798250E+03  0.1072486690906762E+03  0.0000000000000000E+00 0. -1
   #pdf1pdf2  0.4092473240728279E-04
</event>
<event>
  5  26  0.2401515482509494E+02  0.9174099260673913E+02  0.7546888109483510E-02  0.1178921765938094E+00
   2 -1 0 0 501   0  0.1369391785770201E+01  0.2375082851062968E+01  0.6843583469417915E+03  0.6843583469417915E+03  0.2741578452707180E+01 0.  9
  -2 -1 0 0   0 502 -0.8061253189089966E+01  0.1934974498573256E+02 -0.4178144276935290E+01  0.4178144276935290E+01  0.2096178508599627E+02 0.  9
 -13 +1 1 2   0   0 -0.2975566205026295E+02  0.5095740809350102E+02  0.2808943103999486E+03  0.2870255571873691E+03  0.0000000000000000E+00 0. -1
  13 +1 1 2   0   0  0.2342622375612915E+02 -0.1918317456683040E+02  0.3429987847431832E+03  0.3443326131536689E+03  0.0000000000000000E+00 0.  1
  21 +1 1 2 501 502 -0.3624231091859664E+00 -0.1004940568987508E+02  0.5628710752172444E+02  0.5717832087768872E+02  0.0000000000000000E+00 0.  1
   #pdf1pdf2  0.4927598478234415E-05
</event>
<event>
  5   1  0.2401515482509494E+02  0.9884695882128830E+02  0.7546888109483510E-02  0.1165820154034883E+00
   2 -1 0 0 502   0 -0.6560223794063594E+00  0.3633754593982807E+01  0.1290160984428497E+04  0.1290160984428497E+04  0.3692497503258890E+01 0.  9
  21 -1 0 0 501 502  0.2985958893698016E+02  0.3673912550297398E+02 -0.3451003628588674E+01  0.3451003628588674E+01  0.4734298674786690E+02 0.  9
 -13 +1 1 2   0   0  0.2338826713685926E+02  0.1705736428890746E+02  0.1000330599987383E+03  0.1041373026770944E+03  0.0000000000000000E+00 0.  1
  13 +1 1 2   0   0 -0.3210838006648727E+02  0.1916485524261457E+02  0.8119981445150454E+03  0.8128586755659566E+03  0.0000000000000000E+00 0. -1
   2 +1 1 2 501   0  0.3792367948720181E+02  0.4150660565434755E+01  0.3746787762861244E+03  0.3766160098140348E+03  0.0000000000000000E+00 0.  1
   #pdf1pdf2  0.5062598540747250E-05
</event>
<event>
  5  26  0.2401515482509494E+02  0.9230333568331659E+02  0.7546888109483510E-02  0.1177837123102933E+00
   2 -1 0 0 501   0 -0.1989913864595606E+01  0.7701237007483540E+00  0.1477665794447375E+04  0.1477665794447375E+04  0.2133740308229697E+01 0.  9
  -2 -1 0 0   0 502 -0.3845344554722164E+01 -0.6745440215462178E-01 -0.1777428388753258E+01  0.1777428388753258E+01  0.3845936146232987E+01 0.  9
 -13 +1 1 2   0   0 -0.9284581782366494E+01 -0.3858044763389153E+02  0.6518233089322823E+03  0.6530300762338090E+03  0.0000000000000000E+00 0. -1
  13 +1 1 2   0   0 -0.8637569493071929E+01  0.4693327902957103E+02  0.6621660556619856E+03  0.6638834427504327E+03  0.0000000000000000E+00 0.  1
  21 +1 1 2 501 502  0.1208689285612065E+02 -0.7650162097085761E+01  0.1618990014643541E+03  0.1625297038518866E+03  0.0000000000000000E+00 0.  1
   #pdf1pdf2  0.1341433780911467E-03
</event>
<event>
  5  27  0.2401515482509494E+02  0.9314844585313944E+02  0.7546888109483510E-02  0.1176223247064009E+00
   1 -1 0 0 501   0  0.2211540999862053E+01 -0.1473654994644162E+01  0.6487351946465374E+03  0.6487351946465374E+03  0.2657550119435291E+01 0.  9
  -1 -1 0 0   0 502  0.2158880736726840E+01 -0.5039572601800161E+00 -0.5659558358768714E+01  0.5659558358768714E+01  0.2216921053059484E+01 0.  9
 -13 +1 1 2   0   0 -0.3995772289328852E+02  0.2672766173595016E+02  0.2883598611488407E+03  0.2923395235722787E+03  0.0000000000000000E+00 0.  1
  13 +1 1 2   0   0  0.2696995807658201E+02 -0.3645372578427774E+02  0.3122963957886969E+03  0.3155713732023523E+03  0.0000000000000000E+00 0. -1
  21 +1 1 2 501 502  0.1735818655329540E+02  0.7748451793503401E+01  0.4241937935023111E+02  0.4648385623067502E+02  0.0000000000000000E+00 0.  1
   #pdf1pdf2  0.1579187496631335E-03
</event>
<event>
  5   1  0.2401515482509494E+02  0.9176702622387046E+02  0.7546888109483510E-02  0.1178871360591612E+00
   2 -1 0 0 502   0 -0.5159569264384039E+00 -0.8549800035461479E+00  0.9107791408739334E+03  0.9107791408739334E+03  0.9986001984796196E+00 0.  9
  21 -1 0 0 501 502  0.3805329457872726E+01  0.3646393250645144E+01 -0.2933755740372058E+01  0.2933755740372058E+01  0.5270362038921463E+01 0.  9
 -13 +1 1 2   0   0  0.2503270800346463E+02 -0.2337803420478836E+02  0.6058622994310174E+03  0.6068297082585086E+03  0.0000000000000000E+00 0.  1
  13 +1 1 2   0   0 -0.2359385052657104E+02  0.3629243499339154E+02  0.2166790718252930E+03  0.2209606996447337E+03  0.0000000000000000E+00 0. -1
   2 +1 1 2 501   0  0.1850515054540732E+01 -0.1012298754150418E+02  0.8530401387725101E+02  0.8592248871106310E+02  0.0000000000000000E+00 0.  1
   #pdf1pdf2  0.7535130883341530E-02
</event>
<event>
  5  26  0.2401515482509494E+02  0.9483516609910126E+02  0.7546888109483510E-02  0.1173058780052615E+00
   2 -1 0 0 501   0 -0.8586982289018631E+00 -0.5589397384240310E+00  0.2071357306455456E+04  0.2071357306455456E+04  0.1024585906358623E+01 0.  9
  -2 -1 0 0   0 502 -0.1877136012467024E+01  0.2899020009740721E+01 -0.3256268675944491E+01  0.3256268675944491E+01  0.3453687395549529E+01 0.  9
 -13 +1 1 2   0   0  0.9971623572866577E+01  0.3393469275561083E+02  0.2098589534662177E+03  0.2128186481468031E+03  0.0000000000000000E+00 0. -1
  13 +1 1 2   0   0 -0.3557999127382507E+02 -0.4405527550614327E+02  0.4833220764681110E+03  0.4866282284048206E+03  0.0000000000000000E+00 0.  1
  21 +1 1 2 501 502  0.2287253345958960E+02  0.1246066302184914E+02  0.1374920007845183E+04  0.1375166698579777E+04  0.0000000000000000E+00 0. -1
   #pdf1pdf2  0.1530310302211077E-03
</event>
<event>
  5  26  0.2401515482509494E+02  0.9356527420518107E+02  0.7546888109483510E-02  0.1175434288508698E+00
   2 -1 0 0 501   0  0.8348055723448482E+01 -0.6978295781308028E+01  0.6836262565439873E+03  0.6836262565439873E+03  0.1088056277833194E+02 0.  9
  -2 -1 0 0   0 502 -0.1689730892892932E+01  0.3948931574023356E+01 -0.4979151275823468E+01  0.4979151275823468E+01  0.4295259138482255E+01 0.  9
 -13 +1 1 2   0   0  0.3543147243851814E+02 -0.2694630483891500E+02  0.2483963946745350E+03  0.2523534455301543E+03  0.0000000000000000E+00 0. -1
  13 +1 1 2   0   0 -0.1974773786586178E+02  0.4283028768702791E+02  0.3556512896460495E+03  0.3587648903126817E+03  0.0000000000000000E+00 0.  1
  21 +1 1 2 501 502 -0.9025409742100816E+01 -0.1891334705539758E+02  0.7459942094757935E+02  0.7748707197697475E+02  0.0000000000000000E+00 0. -1
   #pdf1pdf2  0.3562999334125190E-05
</event>
<event>
  5  26  0.2401515482509494E+02  0.1001423770277552E+03  0.7546888109483510E-02  0.1163565176478937E+00
   2 -1 0 0 501   0  0.1931607572618634E+01  0.4404160688813596E+01  0.9169895960585030E+03  0.9169895960585030E+03  0.4809130814137696E+01 0.  9
  -2 -1 0 0   0 502  0.8447867204613850E+01 -0.5863311169752007E+02 -0.8140022111715332E+01  0.8140022111715332E+01  0.5923857060767634E+02 0.  9
 -13 +1 1 2   0   0  0.3938964545692159E+02 -0.5861048289835255E+02  0.5345667644507477E+03  0.5392108664800267E+03  0.0000000000000000E+00 0. -1
  13 +1 1 2   0   0 -0.3533660080566030E+02 -0.3652304168581464E+02  0.1677333343105046E+03  0.1752628864574638E+03  0.0000000000000000E+00 0.  1
  21 +1 1 2 501 502  0.6326430125971191E+01  0.4090457357546072E+02  0.2065494751855354E+03  0.2106558652327278E+03  0.0000000000000000E+00 0. -1
   #pdf1pdf2  0.3226058341384429E-07
</event>
<event>
  5  27  0.2401515482509494E+02  0.9400700331937590E+02  0.7546888109483510E-02  0.1174603207090040E+00
   1 -1 0 0 501   0 -0.5059505063613066E+00 -0.6193718695245535E-02  0.1713450072062007E+04  0.1713450072062007E+04  0.5059884159133867E+00 0.  9
  -1 -1 0 0   0 502  0.2457572629310291E+01  0.1031852295385407E+02 -0.2034851915726139E+01  0.2034851915726139E+01  0.1060714755141779E+02 0.  9
 -13 +1 1 2   0   0  0.3227510964798076E+01 -0.2482397836973842E+02  0.1303730207561785E+03  0.1327545527287862E+03  0.0000000000000000E+00 0.  1
  13 +1 1 2   0   0 -0.2338029871418781E+02  0.4091764984046917E+02  0.1257323933511499E+04  0.1258206805822183E+04  0.0000000000000000E+00 0. -1
  21 +1 1 2 501 502  0.2210440987233871E+02 -0.5781342235571914E+01  0.3237182658786030E+03  0.3245235654267639E+03  0.0000000000000000E+00 0. -1
   #pdf1pdf2  0.4296254651996334E-04
</event>
<event>
  5  10  0.2401515482509494E+02  0.9183107599713270E+02  0.7546888109483510E-02  0.1178747429357168E+00
  21 -1 0 0 501 502  0.4043642430610928E+01 -0.2411514813199233E+01  0.6783459035749480E+03  0.6783459035749480E+03  0.4708125720593747E+01 0.  9
   5 -1 0 0 502   0  0.1592823892263395E+02 -0.4315865307997830E+01 -0.4804307199813938E+01  0.4804307199813938E+01  0.1650259035828285E+02 0.  9
 -13 +1 1 2   0   0  0.3189849742180908E+01  0.3024478360515945E+02  0.3248721191325399E+03  0.3262925311225615E+03  0.0000000000000000E+00 0.  1
  13 +1 1 2   0   0  0.8195477779921625E+01 -0.4360011913176313E+02  0.1201139878444737E+03  0.1280449386748555E+03  0.0000000000000000E+00 0. -1
   5 +1 1 2 501   0  0.8586553831142343E+01  0.6627955405406611E+01  0.2285554893981205E+03  0.2288127409773449E+03  0.0000000000000000E+00 0. -1
   #pdf1pdf2  0.1528730890858689E-05
</event>
<event>
  5  27  0.2401515482509494E+02  0.9388716204993598E+02  0.7546888109483510E-02  0.1174828173378784E+00
   1 -1 0 0 501   0 -0.1138199202097371E+00  0.8624994363670433E+01  0.6219272593806519E+03  0.6219272593806519E+03  0.8625745344466372E+01 0.  9
  -1 -1 0 0   0 502  0.2440086580237701E+01 -0.7185481206191044E+01 -0.6378689088157833E+01  0.6378689088157833E+01  0.7588488827400408E+01 0.  9
 -13 +1 1 2   0   0  0.3061048058412557E+02  0.1991917824518539E+02  0.2344820805793094E+03  0.2373091260283859E+03  0.0000000000000000E+00 0. -1
  13 +1 1 2   0   0 -0.4870734400050176E+02 -0.9401827435863130E+01  0.1334152898317970E+03  0.1423391698711895E+03  0.0000000000000000E+00 0.  1
  21 +1 1 2 501 502  0.2042313007640416E+02 -0.9077837651842874E+01  0.2476511998813878E+03  0.2486576525692342E+03  0.0000000000000000E+00 0. -1
   #pdf1pdf2  0.1029054720531301E-05
</event>
<event>
  5   1  0.2401515482509494E+02  0.1256287346996739E+03  0.7546888109483510E-02  0.1125666645893380E+00
   2 -1 0 0 502   0 -0.1148758173218152E+01 -0.4083356226928163E+01  0.9842054912611138E+03  0.9842054912611138E+03  0.4241867915969156E+01 0.  9
  21 -1 0 0 501 502 -0.2382133892036461E+02  0.4793537351553555E+01 -0.1348624734971426E+02  0.1348624734971426E+02  0.2429885158396620E+02 0.  9
 -13 +1 1 2   0   0  0.2458582161106534E+01 -0.1782181012935522E+02  0.2090842798441955E+03  0.2098568503063352E+03  0.0000000000000000E+00 0.  1
  13 +1 1 2   0   0 -0.1114642696323273E+03 -0.1600338787097300E+01  0.3538341100258425E+03  0.3709790046709944E+03  0.0000000000000000E+00 0. -1
   2 +1 1 2 501   0  0.8403559037763804E+02  0.2013233004107791E+02  0.4078008540413615E+03  0.4168558836334986E+03  0.0000000000000000E+00 0.  1
   #pdf1pdf2  0.1348561013082626E-04
</event>
<event>
  5   1  0.2401515482509494E+02  0.9378113167543118E+02  0.7546888109483510E-02  0.1175027527674600E+00
   2 -1 0 0 502   0 -0.7044511446459618E+01  0.2560994553076506E+01  0.7755315685181306E+03  0.7755315685181306E+03  0.7495587676772789E+01 0.  9
  21 -1 0 0 501 502 -0.3696530058434556E+01 -0.2404645778023976E+01 -0.4617457583430520E+01  0.4617457583430520E+01  0.4409836254406588E+01 0.  9
 -13 +1 1 2   0   0 -0.1236116501659215E+00  0.2336686352518076E+02  0.4991273022704505E+03  0.4996739831756523E+03  0.0000000000000000E+00 0.  1
  13 +1 1 2   0   0 -0.1732094699772743E+02 -0.4405939234577063E+02  0.1821417610132717E+03  0.1881936937407638E+03  0.0000000000000000E+00 0. -1
   2 +1 1 2 501   0  0.6703517142999178E+01  0.2084887759564240E+02  0.8964504765097786E+02  0.9228134918514496E+02  0.0000000000000000E+00 0. -1
   #pdf1pdf2  0.1059757605536420E-03
</event>
<event>
  5  26  0.2401515482509494E+02  0.9193244082066906E+02  0.7546888109483510E-02  0.1178551527461036E+00
   2 -1 0 0 501   0 -0.3366630045780829E+00  0.2795041982293125E+01  0.9646389318597378E+03  0.9646389318597378E+03  0.2815244511837760E+01 0.  9
  -2 -1 0 0   0 502 -0.1505610962089501E+02 -0.2037661558934645E+02 -0.2601516819194164E+01  0.2601516819194164E+01  0.2533560537647372E+02 0.  9
 -13 +1 1 2   0   0 -0.2786386164584346E+02 -0.3082525952430492E+02  0.2416433874548354E+03  0.2451899633166234E+03  0.0000000000000000E+00 0. -1
  13 +1 1 2   0   0  0.1424433845480738E+02  0.2478237919028258E+02  0.2707077320321357E+03  0.2722126809653229E+03  0.0000000000000000E+00 0.  1
  21 +1 1 2 501 502 -0.1773249434437018E+01 -0.1153869327303098E+02  0.4496862955535724E+03  0.4498378043969856E+03  0.0000000000000000E+00 0.  1
   #pdf1pdf2  0.2805536809221025E-05
</event>
<event>
  5   2  0.2401515482509494E+02  0.1079183963087923E+03  0.7546888109483510E-02  0.1150784516216813E+00
   1 -1 0 0 502   0  0.8319262380145328E+00  0.4943204613889394E+00  0.7296645463695753E+03  0.7296645463695753E+03  0.9677055254801364E+00 0.  9
  21 -1 0 0 501 502  0.2880677032274393E+02  0.1993923342048842E+02 -0.9443583392477098E+01  0.9443583392477098E+01  0.3503431240689680E+02 0.  9
 -13 +1 1 2   0   0 -0.5243168412012471E+02 -0.3442473661602436E+01  0.2517680564275440E+03  0.2571927027772879E+03  0.0000000000000000E+00 0.  1
  13 +1 1 2   0   0  0.3614685681012065E+02 -0.1108283968520855E+02  0.3264438826685571E+03  0.3286259775557344E+03  0.0000000000000000E+00 0. -1
   1 +1 1 2 501   0  0.4592352387076252E+02  0.3495886722868835E+02  0.1420090238809971E+03  0.1532894494290301E+03  0.0000000000000000E+00 0. -1
   #pdf1pdf2  0.6359364205999339E-04
</event>
<event>
  5   2  0.2401515482509494E+02  0.9470970632031141E+02  0.7546888109483510E-02  0.1173291609848127E+00
   1 -1 0 0 502   0  0.1153803585383559E+02 -0.1119684780299297E+02  0.1432028489144769E+04  0.1432028489144769E+04  0.1607780059858263E+02 0.  9
  21 -1 0 0 501 502  0.2499678129401231E+02 -0.1128321049214486E+02 -0.2518507819348601E+01  0.2518507819348601E+01  0.2742535166722082E+02 0.  9
 -13 +1 1 2   0   0  0.4752160772421233E+01 -0.4765118337023334E+02  0.4177514688288896E+03  0.4204872269371393E+03  0.0000000000000000E+00 0.  1
  13 +1 1 2   0   0  0.1145799247268123E+02  0.4071296181597244E+02  0.6819441646692950E+03  0.6832544727828976E+03  0.0000000000000000E+00 0. -1
   1 +1 1 2 501   0  0.2032466390274544E+02 -0.1554183674087693E+02  0.3298143478272356E+03  0.3308052972440804E+03  0.0000000000000000E+00 0. -1
   #pdf1pdf2  0.4059437967049826E-07
</event>
<event>
  5  27  0.2401515482509494E+02  0.9342775797338037E+02  0.7546888109483510E-02  0.1175694064936722E+00
   1 -1 0 0 501   0  0.3333568550898154E+00  0.2193286429876830E+00  0.1651436844373385E+04  0.1651436844373385E+04  0.3990386528523154E+00 0.  9
  -1 -1 0 0   0 502 -0.1753846012329440E+02 -0.5753163494532322E+01 -0.2013259999174905E+01  0.2013259999174905E+01  0.1845796504740453E+02 0.  9
 -13 +1 1 2   0   0 -0.3367236600776323E+02  0.2261167844324417E+02  0.4611208488236501E+03  0.4629012350971047E+03  0.0000000000000000E+00 0. -1
  13 +1 1 2   0   0  0.2959641480007181E+02 -0.4367237733310842E+02  0.8500811649493235E+03  0.8517166261806459E+03  0.0000000000000000E+00 0.  1
  21 +1 1 2 501 502 -0.1312915206051316E+02  0.1552686403831961E+02  0.3382215706012368E+03  0.3388322430948093E+03  0.0000000000000000E+00 0. -1
   #pdf1pdf2  0.1639073619829372E-04
</event>
<event>
  5   1  0.2401515482509494E+02  0.9647376178371620E+02  0.7546888109483510E-02  0.1170054444002533E+00
   2 -1 0 0 502   0  0.3638576290139622E+00  0.3807206056018414E+00  0.1287545919945901E+04  0.1287545919945901E+04  0.5266313261870158E+00 0.  9
  21 -1 0 0 501 502 -0.3983635316471973E+01  0.3587889467864844E+01 -0.2848479956511998E+01  0.2848479956511998E+01  0.5361184679551547E+01 0.  9
 -13 +1 1 2   0   0 -0.3210710123899128E+02  0.2250836113157396E+02  0.3321233466108599E+03  0.3344299771772824E+03  0.0000000000000000E+00 0.  1
  13 +1 1 2   0   0  0.1394070133073151E+02 -0.4647350618387758E+02  0.5285400503462400E+03  0.5307623901056116E+03  0.0000000000000000E+00 0. -1
   2 +1 1 2 501   0  0.1454662222080176E+02  0.2793375512577031E+02  0.4240340430322887E+03  0.4252020326195184E+03  0.0000000000000000E+00 0. -1
   #pdf1pdf2  0.9759668146647494E-02
</event>
<event>
  5  26  0.2401515482509494E+02  0.9337494959614330E+02  0.7546888109483510E-02  0.1175793956245297E+00
   2 -1 0 0 501   0 -0.1025469872686292E+00  0.1020109743974597E+01  0.9771409922769594E+03  0.9771409922769594E+03  0.1025251078687455E+01 0.  9
  -2 -1 0 0   0 502 -0.2558150338276551E+01 -0.3423422465708275E+01 -0.4153154479808888E+01  0.4153154479808888E+01  0.4273634814995376E+01 0.  9
 -13 +1 1 2   0   0  0.3333680507244608E+01  0.2036848438304825E+02  0.5386048436960271E+02  0.5767963555983239E+02  0.0000000000000000E+00 0.  1
  13 +1 1 2   0   0 -0.1910579838481159E+02 -0.3799296801737349E+02  0.8621677322784558E+03  0.8632159033132240E+03  0.0000000000000000E+00 0. -1
  21 +1 1 2 501 502  0.1311142055202180E+02  0.1522117091259155E+02  0.5695962114909207E+02  0.6039860788371202E+02  0.0000000000000000E+00 0.  1
   #pdf1pdf2  0.6339340198045311E-03
</event>
<event>
  5  26  0.2401515482509494E+02  0.9344309739541065E+02  0.7546888109483510E-02  0.1175665063039694E+00
   2 -1 0 0 501   0 -0.6913002086134339E+00  0.2246985957445209E+01  0.1600771487886476E+04  0.1600771487886476E+04  0.2350923620916881E+01 0.  9
  -2 -1 0 0   0 502 -0.8089758979536910E+01 -0.3485923382266508E+01 -0.3323626992194313E+01  0.3323626992194313E+01  0.8808851353838959E+01 0.  9
 -13 +1 1 2   0   0 -0.2921089822547037E+02 -0.3576915065457755E+02  0.1389044296681669E+04  0.1389811773895142E+04  0.0000000000000000E+00 0. -1
  13 +1 1 2   0   0  0.2169061243176704E+02  0.1416516763550200E+02  0.1543099240988597E+03  0.1564694453150609E+03  0.0000000000000000E+00 0.  1
  21 +1 1 2 501 502 -0.1260773394447016E+01  0.2036504559425425E+02  0.5409364011375305E+02  0.5781389566846740E+02  0.0000000000000000E+00 0. -1
   #pdf1pdf2  0.1461767771053056E-04
</event>
<event>
  5  26  0.2401515482509494E+02  0.9832974350500668E+02  0.7546888109483510E-02  0.1166731427890284E+00
   2 -1 0 0 501   0 -0.2923135085293618E+01  0.7620664768389706E+01  0.1250273795436220E+04  0.1250273795436220E+04  0.8162061641463550E+01 0.  9
  -2 -1 0 0   0 502 -0.6502380793393223E+01  0.9330442182205182E+01 -0.6347897888826204E+01  0.6347897888826204E+01  0.1137269129528112E+02 0.  9
 -13 +1 1 2   0   0 -0.2323366368553139E+02  0.5923121323778476E+02  0.9363232780596638E+03  0.9384825095793032E+03  0.0000000000000000E+00 0.  1
  13 +1 1 2   0   0  0.3130895196061797E+02 -0.9920061594827807E+01  0.2291180406636370E+03  0.2314600065939286E+03  0.0000000000000000E+00 0. -1
  21 +1 1 2 501 502 -0.1750080415377343E+02 -0.3236004469236207E+02  0.7848457882409321E+02  0.8667917715181486E+02  0.0000000000000000E+00 0. -1
   #pdf1pdf2  0.4043656312321292E-06
</event>
<event>
  5   2  0.2401515482509494E+02  0.9209984177856808E+02  0.7546888109483510E-02  0.1178228619528686E+00
   1 -1 0 0 502   0  0.3735894788986857E+00  0.5979862333603024E-01  0.2034235258460304E+04  0.2034235258460304E+04  0.3783450463488003E+00 0.  9
  21 -1 0 0 501 502  0.6709095225591831E+01  0.9217886655419731E+01 -0.1261088685412886E+01  0.1261088685412886E+01  0.1140093825692536E+02 0.  9
 -13 +1 1 2   0   0 -0.3341214182514283E+02 -0.1118033802296642E+02  0.5726575171534624E+03  0.5737403621256042E+03  0.0000000000000000E+00 0.  1
  13 +1 1 2   0   0  0.4975537496390581E+02  0.1143941592065894E+02  0.1250300641152517E+04  0.1251342539371534E+04  0.0000000000000000E+00 0. -1
   1 +1 1 2 501   0 -0.9260548434272469E+01  0.9018607381063243E+01  0.2100160114689115E+03  0.2104134456485784E+03  0.0000000000000000E+00 0. -1
   #pdf1pdf2  0.6351967803517311E-03
</event>
<event>
  5   2  0.2401515482509494E+02  0.9529900479607701E+02  0.7546888109483510E-02  0.1172201474802075E+00
   1 -1 0 0 502   0  0.9428005618128054E+00 -0.3745528017944343E+00  0.1400551609334900E+04  0.1400551609334900E+04  0.1014476564877968E+01 0.  9
  21 -1 0 0 501 502  0.2789885715083422E+01 -0.1346259406269632E+02 -0.4405479778474135E+01  0.4405479778474135E+01  0.1374863270293351E+02 0.  9
 -13 +1 1 2   0   0  0.4511012158360008E+02  0.3336667993299852E+02  0.7529356586224987E+03  0.7550234197853298E+03  0.0000000000000000E+00 0. -1
  13 +1 1 2   0   0 -0.1598030211872482E+02 -0.3617667296185402E+02  0.5744243022221906E+03  0.5757841615621649E+03  0.0000000000000000E+00 0.  1
   1 +1 1 2 501   0 -0.2539713318797903E+02 -0.1102715383563525E+02  0.6878616871173676E+02  0.7414950776587949E+02  0.0000000000000000E+00 0. -1
   #pdf1pdf2  0.3151150072220333E-03
</event>
<event>
  5   1  0.2401515482509494E+02  0.9317843045165466E+02  0.7546888109483510E-02  0.1176166339020985E+00
   2 -1 0 0 502   0 -0.4520421297979891E+01 -0.2492854671569394E+01  0.1457685219419410E+04  0.1457685219419410E+04  0.5162221723715048E+01 0.  9
  21 -1 0 0 501 502 -0.1502874962267434E+01  0.2730350662844395E+00 -0.2699050309346584E+01  0.2699050309346584E+01  0.1527475466130730E+01 0.  9
 -13 +1 1 2   0   0  0.7601265192098738E+01  0.4663284583435516E+02  0.4212177346461820E+03  0.4238593888586081E+03  0.0000000000000000E+00 0.  1
  13 +1 1 2   0   0 -0.1329198104690327E+02 -0.2970008147643138E+02  0.9514835988847867E+03  0.9520398156309450E+03  0.0000000000000000E+00 0. -1
   2 +1 1 2 501   0 -0.3325804054427950E+00 -0.1915258396320874E+02  0.8228483557909522E+02  0.8448506523920413E+02  0.0000000000000000E+00 0. -1
   #pdf1pdf2  0.1783539840626929E-03
</event>
<event>
  5   1  0.2401515482509494E+02  0.9711223780817193E+02  0.7546888109483510E-02  0.1168901867392231E+00
   2 -1 0 0 502   0  0.5041966417949608E+00  0.6594666068570785E+00  0.7960087247039113E+03  0.7960087247039113E+03  0.8301267729430877E+00 0.  9
  21 -1 0 0 501 502  0.4393981460816254E+01  0.7880379869560167E+01 -0.5389257442971897E+01  0.5389257442971897E+01  0.9022608268486783E+01 0.  9
 -13 +1 1 2   0   0 -0.2685224844600420E+02 -0.2415477801747939E+02  0.1814388263098199E+03  0.1849987682131010E+03  0.0000000000000000E+00 0.  1
  13 +1 1 2   0   0  0.5876282701873755E+02  0.1305209070335208E+02  0.4202491639065263E+03  0.4245383217980410E+03  0.0000000000000000E+00 0. -1
   2 +1 1 2 501   0 -0.2701240047012213E+02  0.1964253379054456E+02  0.1889314770445931E+03  0.1918608921357412E+03  0.0000000000000000E+00 0. -1
   #pdf1pdf2  0.3491302078873865E-02
</event>
<event>
  5  26  0.2401515482509494E+02  0.9259828447426642E+02  0.7546888109483510E-02  0.1177271680223870E+00
   2 -1 0 0 501   0 -0.1194678280843800E+01 -0.1580836629169306E+01  0.1210131085789916E+04  0.1210131085789916E+04  0.1981489501068141E+01 0.  9
  -2 -1 0 0   0 502 -0.3141149391563050E+01  0.2140458658867490E+01 -0.1177900708250233E+01  0.1177900708250233E+01  0.3801102836077673E+01 0.  9
 -13 +1 1 2   0   0 -0.1604549645297435E+01  0.3027960071934210E+02  0.5044464768747449E+03  0.5053569796001926E+03  0.0000000000000000E+00 0.  1
  13 +1 1 2   0   0 -0.1729488585346135E+02 -0.2286025599718806E+02  0.4051970787265340E+03  0.4062097696873602E+03  0.0000000000000000E+00 0. -1
  21 +1 1 2 501 502  0.1456360782635193E+02 -0.6859722692455857E+01  0.2993096294803871E+03  0.2997422372106136E+03  0.0000000000000000E+00 0.  1
   #pdf1pdf2  0.2876703728882267E-03
</event>
<event>
  5  26  0.2401515482509494E+02  0.9475085545757152E+02  0.7546888109483510E-02  0.1173215200255621E+00
   2 -1 0 0 501   0  0.1835454665590759E+00 -0.3384739776247082E+00  0.2172734453031776E+04  0.2172734453031776E+04  0.3850371044762833E+00 0.  9
  -2 -1 0 0   0 502 -0.1731470198313135E+02  0.2262199873426855E+02 -0.2058783861606119E+01  0.2058783861606119E+01  0.2848778214424388E+02 0.  9
 -13 +1 1 2   0   0  0.2239993683217876E+02 -0.4224445457810137E+01  0.1560357993492035E+03  0.1576920219543668E+03  0.0000000000000000E+00 0.  1
  13 +1 1 2   0   0 -0.6388769809626439E+02  0.3482617890833886E+02  0.1344822749737450E+04  0.1346789786461418E+04  0.0000000000000000E+00 0. -1
  21 +1 1 2 501 502  0.2435660474751335E+02 -0.8318208693884888E+01  0.6698171200835161E+03  0.6703114284775972E+03  0.0000000000000000E+00 0.  1
   #pdf1pdf2  0.5681085664405760E-05
</event>
<event>
  5   1  0.2401515482509494E+02  0.9181093879656098E+02  0.7546888109483510E-02  0.1178786381049220E+00
   2 -1 0 0 502   0 -0.6714073956623697E+00 -0.9669463828409612E-01  0.3543406714213513E+03  0.3543406714213513E+03  0.6783345369528357E+00 0.  9
  21 -1 0 0 501 502  0.8474239838029815E+00  0.5673221507536130E+01 -0.7351878463290661E+01  0.7351878463290661E+01  0.5736163324199812E+01 0.  9
 -13 +1 1 2   0   0  0.4840754203464600E+02 -0.9945918307695615E+01  0.1630426642361407E+03  0.1703676077722473E+03  0.0000000000000000E+00 0.  1
  13 +1 1 2   0   0 -0.3848417362432191E+02  0.1116930884546853E+02  0.1205358832385548E+03  0.1270223768779774E+03  0.0000000000000000E+00 0. -1
   2 +1 1 2 501   0 -0.9747351822183473E+01  0.4353136331479116E+01  0.6341024548336514E+02  0.6430256523441733E+02  0.0000000000000000E+00 0. -1
   #pdf1pdf2  0.6758202092328386E-02
</event>
<event>
  5  26  0.2401515482509494E+02  0.9391100540517884E+02  0.7546888109483510E-02  0.1174783384616812E+00
   2 -1 0 0 501   0 -0.7286954604381587E+00  0.1281477417545527E+01  0.1157307290381291E+04  0.1157307290381291E+04  0.1474171443809143E+01 0.  9
  -2 -1 0 0   0 502  0.3366187060312400E+00 -0.3093986551039279E+01 -0.4606634730845753E+01  0.4606634730845753E+01  0.3112244355969190E+01 0.  9
 -13 +1 1 2   0   0 -0.3522443197226877E+02 -0.1229390452805886E+02  0.2597483026048733E+03  0.2624139504722012E+03  0.0000000000000000E+00 0.  1
  13 +1 1 2   0   0  0.5703161600479404E+02  0.7137454981623195E+01  0.2656821795304635E+03  0.2718281975950811E+03  0.0000000000000000E+00 0. -1
  21 +1 1 2 501 502 -0.2219926078693218E+02  0.3343940412941913E+01  0.6272701735151079E+03  0.6276717770448541E+03  0.0000000000000000E+00 0.  1
   #pdf1pdf2  0.4862339366756267E-03
</event>
<event>
  5   1  0.2401515482509494E+02  0.9219251741181688E+02  0.7546888109483510E-02  0.1178050183121872E+00
   2 -1 0 0 502   0  0.5887648762149544E+01 -0.2370987525916261E+02  0.3121257782033891E+03  0.3121257782033891E+03  0.2442995277833120E+02 0.  9
  21 -1 0 0 501 502 -0.1265885619388929E+01 -0.5780021742842930E+01 -0.9610288247445959E+01  0.9610288247445959E+01  0.5917019329790356E+01 0.  9
 -13 +1 1 2   0   0  0.2211899297790498E+02 -0.5249350195028693E+02  0.1305973415702810E+03  0.1424797642564937E+03  0.0000000000000000E+00 0. -1
  13 +1 1 2   0   0 -0.3087693334494305E+02  0.2073292631006735E+02  0.1264403832605086E+03  0.1317968503615737E+03  0.0000000000000000E+00 0.  1
   2 +1 1 2 501   0  0.1337970350979868E+02  0.2270678638214033E+01  0.4547776512515355E+02  0.4745945183276766E+02  0.0000000000000000E+00 0. -1
   #pdf1pdf2  0.3036300338262450E-05
</event>
<event>
  5  27  0.2401515482509494E+02  0.9235451283325239E+02  0.7546888109483510E-02  0.1177738842527281E+00
   1 -1 0 0 501   0  0.4039960337163008E+01  0.3159847780936257E+01  0.5891097157140291E+03  0.5891097157140291E+03  0.5128929471589371E+01 0.  9
  -1 -1 0 0   0 502  0.2941162672923644E+01  0.2639418571991459E+01 -0.5370428505642865E+01  0.5370428505642865E+01  0.3951831001798127E+01 0.  9
 -13 +1 1 2   0   0  0.4109946833266508E+02 -0.9113018216050667E+01  0.9477287532117177E+02  0.1037020312958053E+03  0.0000000000000000E+00 0.  1
  13 +1 1 2   0   0 -0.2740326650568218E+02  0.1913210066912723E+01  0.3277165745274473E+03  0.3288658580758201E+03  0.0000000000000000E+00 0. -1
  21 +1 1 2 501 502 -0.6715078816896250E+01  0.1299907450206566E+02  0.1612498373597672E+03  0.1619122548480465E+03  0.0000000000000000E+00 0. -1
   #pdf1pdf2  0.1583024551292764E-04
</event>
<event>
  5   1  0.2401515482509494E+02  0.1027595293477077E+03  0.7546888109483510E-02  0.1159123945853743E+00
   2 -1 0 0 502   0  0.4368792807785400E+00 -0.1965451911633082E+01  0.8139350648015858E+03  0.8139350648015858E+03  0.2013421148919349E+01 0.  9
  21 -1 0 0 501 502 -0.2926017334997884E+02  0.4728396685335337E+01 -0.6928733157081489E+01  0.6928733157081489E+01  0.2963976180209116E+02 0.  9
 -13 +1 1 2   0   0 -0.1304267783564705E+02  0.2477530045450512E+02  0.2852359301349036E+03  0.2866068087077820E+03  0.0000000000000000E+00 0. -1
  13 +1 1 2   0   0 -0.1605951945205117E+01 -0.6721536382003001E+02  0.3223167276475413E+03  0.3292545476322668E+03  0.0000000000000000E+00 0.  1
   2 +1 1 2 501   0 -0.1417466428834813E+02  0.4520300813922714E+02  0.1994536738620593E+03  0.2050024416186186E+03  0.0000000000000000E+00 0.  1
   #pdf1pdf2  0.8231383128354425E-04
</event>
<event>
  5  27  0.2401515482509494E+02  0.9410179944775801E+02  0.7546888109483510E-02  0.1174425521545970E+00
   1 -1 0 0 501   0  0.1445054755647975E+01  0.4037508604720563E+01  0.4921466307246423E+03  0.4921466307246423E+03  0.4288316567140702E+01 0.  9
  -1 -1 0 0   0 502 -0.9063297827327947E+01  0.1433152846021027E+01 -0.7074083372088230E+01  0.7074083372088230E+01  0.9175908379387060E+01 0.  9
 -13 +1 1 2   0   0  0.2743048771514380E+02  0.3583148631601779E+02  0.1033123614231479E+03  0.1127376205653320E+03  0.0000000000000000E+00 0.  1
  13 +1 1 2   0   0 -0.3393505599940353E+02 -0.7152624406517329E+01  0.2779014612737903E+03  0.2800570838948576E+03  0.0000000000000000E+00 0. -1
  21 +1 1 2 501 502 -0.1113674787420240E+01 -0.2320820045875887E+02  0.1038587246556158E+03  0.1064260096365409E+03  0.0000000000000000E+00 0. -1
   #pdf1pdf2  0.5196507990803765E-05
</event>
<event>
  5   1  0.2401515482509494E+02  0.9269840523361054E+02  0.7546888109483510E-02  0.1177080275664237E+00
   2 -1 0 0 502   0  0.1320148951904496E+00  0.2303487044932261E+01  0.6439555416215966E+03  0.6439555416215966E+03  0.2307266889356952E+01 0.  9
  21 -1 0 0 501 502 -0.3856774386746219E+00 -0.6989860688516480E+00 -0.5148310364359625E+01  0.5148310364359625E+01  0.7983286360586708E+00 0.  9
 -13 +1 1 2   0   0 -0.3861705433591928E+02  0.5025381177617936E+01  0.1503098934749829E+03  0.1552726486475464E+03  0.0000000000000000E+00 0.  1
  13 +1 1 2   0   0  0.5281733879910690E+02  0.4873089266877653E+01  0.4199908728658346E+03  0.4233270031163004E+03  0.0000000000000000E+00 0. -1
   2 +1 1 2 501   0 -0.1445394700667179E+02 -0.8293969468414975E+01  0.6850646491641942E+02  0.7050420022210932E+02  0.0000000000000000E+00 0. -1
   #pdf1pdf2  0.4057541713048811E-02
</event>
<event>
  5  27  0.2401515482509494E+02  0.9192868933735035E+02  0.7546888109483510E-02  0.1178558772696174E+00
   1 -1 0 0 501   0  0.6653321276739287E+01  0.4489789178146133E+01  0.5127903445802592E+03  0.5127903445802592E+03  0.8026511750175777E+01 0.  9
  -1 -1 0 0   0 502  0.7686652329967309E+01 -0.1679040219761080E+02 -0.6973409957973815E+01  0.6973409957973815E+01  0.1846624569313767E+02 0.  9
 -13 +1 1 2   0   0 -0.3918328112245658E+02  0.1381240131132314E+01  0.1918455956400293E+03  0.1958110566599827E+03  0.0000000000000000E+00 0. -1
  13 +1 1 2   0   0  0.4699849757079212E+02 -0.4036976372360781E+01  0.1104874139267253E+03  0.1201358588780148E+03  0.0000000000000000E+00 0.  1
  21 +1 1 2 501 502  0.6524757158371061E+01 -0.9644876778236203E+01  0.2034839250555307E+03  0.2038168390002355E+03  0.0000000000000000E+00 0.  1
   #pdf1pdf2  0.1977947486354462E-06
</event>
<event>
  5  26  0.2401515482509494E+02  0.9191665496618297E+02  0.7546888109483510E-02  0.1178582017274415E+00
   2 -1 0 0 501   0 -0.2283404450022185E+01  0.1114264164097461E+00  0.6506851167084842E+03  0.6506851167084842E+03  0.2286121547218134E+01 0.  9
  -2 -1 0 0   0 502  0.2928573536673130E+00  0.5595612122326120E+00 -0.4103685327402147E+01  0.4103685327402147E+01  0.6315648658944319E+00 0.  9
 -13 +1 1 2   0   0  0.2119365267265625E+02 -0.1935591512906933E+02  0.7163380176495278E+02  0.7717009731361932E+02  0.0000000000000000E+00 0. -1
  13 +1 1 2   0   0 -0.3392013670638315E+02  0.2428404957325630E+02  0.5053886685368940E+03  0.5071074807408688E+03  0.0000000000000000E+00 0.  1
  21 +1 1 2 501 502  0.1073593693737203E+02 -0.4257146815544607E+01  0.6955896107923536E+02  0.7051122398139825E+02  0.0000000000000000E+00 0. -1
   #pdf1pdf2  0.1423790692656652E-02
</event>
<event>
  5   2  0.2401515482509494E+02  0.9294635328842706E+02  0.7546888109483510E-02  0.1176607427070614E+00
   1 -1 0 0 502   0  0.2859131591206892E+00 -0.5800344459453919E+00  0.1124715346123274E+04  0.1124715346123274E+04  0.6466732505999845E+00 0.  9
  21 -1 0 0 501 502  0.1839798634801924E+01  0.4306704657676490E+01 -0.3063196805046606E+01  0.3063196805046606E+01  0.4683221543453971E+01 0.  9
 -13 +1 1 2   0   0  0.2808834707298204E+02  0.3615691815211203E+01  0.1000331846897617E+04  0.1000732647806692E+04  0.0000000000000000E+00 0. -1
  13 +1 1 2   0   0 -0.1423941508996830E+02 -0.1353830285837351E+02  0.5947416178867661E+02  0.6263563288460605E+02  0.0000000000000000E+00 0.  1
   1 +1 1 2 501   0 -0.1172322018909112E+02  0.1364928125489340E+02  0.6184614063193408E+02  0.6441026223702295E+02  0.0000000000000000E+00 0. -1
   #pdf1pdf2  0.4265404922414270E-02
</event>
<event>
  5   1  0.2401515482509494E+02  0.9518349097508849E+02  0.7546888109483510E-02  0.1172414464913159E+00
   2 -1 0 0 502   0  0.4236174225672471E+00  0.1338733876661074E+01  0.9267387644106043E+03  0.9267387644106043E+03  0.1404158151072202E+01 0.  9
  21 -1 0 0 501 502  0.3628455256914582E+01 -0.5404980598123362E+01 -0.4431053550044443E+01  0.4431053550044443E+01  0.6509954133288578E+01 0.  9
 -13 +1 1 2   0   0  0.1461706157082338E+02  0.4326821840057688E+02  0.1583711687316918E+03  0.1648248291307085E+03  0.0000000000000000E+00 0.  1
  13 +1 1 2   0   0 -0.2379343959685594E+02 -0.2346780999618359E+02  0.4237073383904590E+03  0.4250232634571820E+03  0.0000000000000000E+00 0. -1
   2 +1 1 2 501   0  0.1322845070551439E+02 -0.2386665512585557E+02  0.3402292037384091E+03  0.3413217253727582E+03  0.0000000000000000E+00 0. -1
   #pdf1pdf2  0.2944613509886952E-02
</event>
<event>
  5  26  0.2401515482509494E+02  0.9589761719069615E+02  0.7546888109483510E-02  0.1171103119053258E+00
   2 -1 0 0 501   0 -0.1988725587874486E+01  0.4502233957063226E+00  0.1031794281424228E+04  0.1031794281424228E+04  0.2039051389717300E+01 0.  9
  -2 -1 0 0   0 502 -0.2612186167953010E+02 -0.6559874834714773E+01 -0.4115385047194605E+01  0.4115385047194605E+01  0.2693294665371072E+02 0.  9
 -13 +1 1 2   0   0  0.2877714055043660E+02  0.1318096665845855E+02  0.4054892785470067E+03  0.4067227762455442E+03  0.0000000000000000E+00 0.  1
  13 +1 1 2   0   0 -0.5388844100623425E+02  0.1024020380499660E+02  0.2567660685041260E+03  0.2625597832553869E+03  0.0000000000000000E+00 0. -1
  21 +1 1 2 501 502 -0.2999286811606936E+01 -0.2953082190246360E+02  0.3654235493259009E+03  0.3666271069704918E+03  0.0000000000000000E+00 0. -1
   #pdf1pdf2  0.3632022733106805E-05
</event>
<event>
  5   2  0.2401515482509494E+02  0.9487503252365600E+02  0.7546888109483510E-02  0.1172984879946487E+00
   1 -1 0 0 502   0 -0.4602328838378121E+00  0.1050223991864447E+01  0.4439730583733848E+03  0.4439730583733848E+03  0.1146640632654086E+01 0.  9
  21 -1 0 0 501 502 -0.1775244131679289E+02  0.8740392338791906E+01 -0.8080981880669093E+01  0.8080981880669093E+01  0.1978746145775621E+02 0.  9
 -13 +1 1 2   0   0 -0.4340070643361958E+02 -0.3375258845281213E+02  0.2264438680109903E+03  0.2330229257089975E+03  0.0000000000000000E+00 0. -1
  13 +1 1 2   0   0  0.3276052903908150E+02  0.1847048516140708E+02  0.1333426399009659E+03  0.1385448328187555E+03  0.0000000000000000E+00 0.  1
   1 +1 1 2 501   0 -0.7572496806092612E+01  0.2507271962206141E+02  0.7610556858075955E+02  0.8048628172630092E+02  0.0000000000000000E+00 0. -1
   #pdf1pdf2  0.2713301476406424E-03
</event>
<event>
  5  26  0.2401515482509494E+02  0.9175476297759450E+02  0.7546888109483510E-02  0.1178895101913186E+00
   2 -1 0 0 501   0  0.1820220208274032E+01  0.1814068181615124E+01  0.6372534227627066E+03  0.6372534227627066E+03  0.2569833647175934E+01 0.  9
  -2 -1 0 0   0 502  0.1142771064247540E+01 -0.3174813310913424E-01 -0.3306667064296961E+01  0.3306667064296961E+01  0.1143211987882113E+01 0.  9
 -13 +1 1 2   0   0 -0.2539436336321686E+02  0.2992328078724925E+02  0.3769953478481050E+03  0.3790326750067985E+03  0.0000000000000000E+00 0. -1
  13 +1 1 2   0   0  0.3264761246610917E+02 -0.1890827978554836E+02  0.2194095113342477E+03  0.2226295652156720E+03  0.0000000000000000E+00 0.  1
  21 +1 1 2 501 502 -0.4290257830370732E+01 -0.9232680953194896E+01  0.3754189651605691E+02  0.3889784960453304E+02  0.0000000000000000E+00 0. -1
   #pdf1pdf2  0.8233394980512699E-03
</event>
<event>
  5   1  0.2401515482509494E+02  0.9634867769422196E+02  0.7546888109483510E-02  0.1170281417922171E+00
   2 -1 0 0 502   0 -0.6110576208695911E+00  0.1726343684358990E+01  0.6343044898525433E+03  0.6343044898525433E+03  0.1831298428041966E+01 0.  9
  21 -1 0 0 501 502 -0.2009156410675291E+01 -0.1776396574251708E+01 -0.5705498685933896E+01  0.5705498685933896E+01  0.2681845310895247E+01 0.  9
 -13 +1 1 2   0   0 -0.4771514865999446E+02  0.3756570984567470E+01  0.1826058740940379E+03  0.1887743427769121E+03  0.0000000000000000E+00 0.  1
  13 +1 1 2   0   0  0.1531648889404759E+02  0.5194711794669388E+01  0.3490249143057409E+03  0.3493994428570271E+03  0.0000000000000000E+00 0. -1
   2 +1 1 2 501   0  0.2977844573440199E+02 -0.9001335669129576E+01  0.9696820276683059E+02  0.1018362029045380E+03  0.0000000000000000E+00 0.  1
   #pdf1pdf2  0.4400062235782898E-02
</event>
<event>
  5  26  0.2401515482509494E+02  0.9183104538679794E+02  0.7546888109483510E-02  0.1178747488558719E+00
   2 -1 0 0 501   0  0.5505184543805546E+00  0.3618017694548865E+00  0.9335747318125323E+03  0.9335747318125323E+03  0.6587648207017748E+00 0.  9
  -2 -1 0 0   0 502 -0.1611835539920912E+02 -0.5226856841083129E+01 -0.3139037453710701E+01  0.3139037453710701E+01  0.1694465736485666E+02 0.  9
 -13 +1 1 2   0   0  0.1786745678615204E+02 -0.3160134662816870E+02  0.1910322059900496E+03  0.1944510088586414E+03  0.0000000000000000E+00 0.  1
  13 +1 1 2   0   0 -0.3687877471003075E+02  0.3702198629919459E+02  0.5275425156975155E+03  0.5301243036893463E+03  0.0000000000000000E+00 0. -1
  21 +1 1 2 501 502  0.3443480979050143E+01 -0.1028569474265413E+02  0.2118609726712565E+03  0.2121384567182552E+03  0.0000000000000000E+00 0.  1
   #pdf1pdf2  0.7066070023222686E-04
</event>
<event>
  5  26  0.2401515482509494E+02  0.9596619633965686E+02  0.7546888109483510E-02  0.1170977861473757E+00
   2 -1 0 0 501   0 -0.4641464199426086E-02  0.9019300551457190E+00  0.1104341381016905E+04  0.1104341381016905E+04  0.9019419978940300E+00 0.  9
  -2 -1 0 0   0 502 -0.7057503536718879E+01  0.5432100433311462E+01 -0.5750602318339329E+01  0.5750602318339329E+01  0.8905957067512848E+01 0.  9
 -13 +1 1 2   0   0 -0.4445823513920448E+02  0.4157749524269017E+02  0.1950375657560372E+03  0.2043156255365440E+03  0.0000000000000000E+00 0.  1
  13 +1 1 2   0   0  0.8675423092999829E+01 -0.2691602186128113E+02  0.2609797299615889E+03  0.2625074373222659E+03  0.0000000000000000E+00 0. -1
  21 +1 1 2 501 502  0.2872066704528634E+02 -0.8327442892951858E+01  0.6425734829809393E+03  0.6432689204764342E+03  0.0000000000000000E+00 0. -1
   #pdf1pdf2  0.1460743141445991E-03
</event>
<event>
  5   1  0.2401515482509494E+02  0.9225628222633729E+02  0.7546888109483510E-02  0.1177927547499929E+00
   2 -1 0 0 502   0 -0.1981737834092248E+00  0.5172037843926911E+00  0.1156698866299723E+04  0.1156698866299723E+04  0.5538705652233630E+00 0.  9
  21 -1 0 0 501 502 -0.2057560068318961E+02 -0.1900332514391065E+01 -0.2919001448790429E+01  0.2919001448790429E+01  0.2066317030707835E+02 0.  9
 -13 +1 1 2   0   0  0.7889847734216762E+01 -0.3186258873401127E+02  0.2097645781561815E+03  0.2123173391580222E+03  0.0000000000000000E+00 0.  1
  13 +1 1 2   0   0 -0.3093000685970105E+02  0.4429239928439659E+02  0.8850239445369455E+03  0.8866712267590755E+03  0.0000000000000000E+00 0. -1
   2 +1 1 2 501   0  0.2266384658885453E+01 -0.1381293928038369E+02  0.5899134215780555E+02  0.6062930183141551E+02  0.0000000000000000E+00 0. -1
   #pdf1pdf2  0.1283044027179651E-02
</event>
<event>
  5  26  0.2401515482509494E+02  0.9210893882946355E+02  0.7546888109483510E-02  0.1178211093790068E+00
   2 -1 0 0 501   0  0.5761275845731809E+01  0.3078733778352085E+01  0.4115642395477129E+03  0.4115642395477129E+03  0.6532296766725994E+01 0.  9
  -2 -1 0 0   0 502 -0.5551584350307533E+01 -0.5388158825930449E+01 -0.7747595202787753E+01  0.7747595202787753E+01  0.7736429688947720E+01 0.  9
 -13 +1 1 2   0   0 -0.5114320747696052E+01  0.4768454702238287E+02  0.1073974426966985E+03  0.1176188037655153E+03  0.0000000000000000E+00 0.  1
  13 +1 1 2   0   0 -0.4639244200988834E+01 -0.4165716728162795E+02  0.2500380629530524E+03  0.2535268725362274E+03  0.0000000000000000E+00 0. -1
  21 +1 1 2 501 502  0.9963256444109161E+01 -0.8336804788333282E+01  0.4638113869517427E+02  0.4816615844875790E+02  0.0000000000000000E+00 0.  1
   #pdf1pdf2  0.5386596956387580E-05
</event>
<event>
  5  26  0.2401515482509494E+02  0.9421139211314112E+02  0.7546888109483510E-02  0.1174220393443390E+00
   2 -1 0 0 501   0 -0.6883290564847633E-01 -0.5603069695479181E+00  0.5451372984634912E+03  0.5451372984634912E+03  0.5645191485007250E+00 0.  9
  -2 -1 0 0   0 502 -0.1406578217125926E+01  0.1161976540036321E+00 -0.9701868920554499E+01  0.9701868920554499E+01  0.1411369609878680E+01 0.  9
 -13 +1 1 2   0   0  0.1887853018878880E+02 -0.4708430803331191E+02  0.1233777538514563E+03  0.1333994044607972E+03  0.0000000000000000E+00 0. -1
  13 +1 1 2   0   0 -0.1573472850234996E+01  0.6105521134450801E+02  0.3440516015261482E+03  0.3494305641495037E+03  0.0000000000000000E+00 0.  1
  21 +1 1 2 501 502 -0.1878046846132820E+02 -0.1441501262674038E+02  0.6800607416533217E+02  0.7200919877374479E+02  0.0000000000000000E+00 0. -1
   #pdf1pdf2  0.3794165585660268E-02
</event>
<event>
  5  26  0.2401515482509494E+02  0.9243791792194318E+02  0.7546888109483510E-02  0.1177578824103726E+00
   2 -1 0 0 501   0  0.1332341301138815E+00 -0.9610575180501488E-01  0.2142473837342637E+04  0.2142473837342637E+04  0.1642791799261545E+00 0.  9
  -2 -1 0 0   0 502 -0.4743774661098207E+02 -0.6495359008045858E+02 -0.2583978042003030E+01  0.2583978042003030E+01  0.8043201270556388E+02 0.  9
 -13 +1 1 2   0   0 -0.6678930778284436E+02 -0.1137694285096137E+02  0.9271852434126050E+03  0.9296573143179357E+03  0.0000000000000000E+00 0. -1
  13 +1 1 2   0   0  0.8228444575096333E+01 -0.6381057418792142E+02  0.8785695591566595E+03  0.8809222252588730E+03  0.0000000000000000E+00 0.  1
  21 +1 1 2 501 502  0.1125635072687984E+02  0.1013782120661919E+02  0.3341350567313693E+03  0.3344782758078308E+03  0.0000000000000000E+00 0.  1
   #pdf1pdf2  0.1775165815937542E-06
</event>
<event>
  5   2  0.2401515482509494E+02  0.9184338639292189E+02  0.7546888109483510E-02  0.1178723622677333E+00
   1 -1 0 0 502   0 -0.1052064877997866E+01 -0.2457892849421701E+01  0.1025524343805741E+04  0.1025524343805741E+04  0.2673588930025518E+01 0.  9
  21 -1 0 0 501 502  0.9809097035949838E+01 -0.4110268766023513E+01 -0.2649816637021843E+01  0.2649816637021843E+01  0.1063544517120127E+02 0.  9
 -13 +1 1 2   0   0  0.4242339074429967E+02  0.3092919395266334E+02  0.5134009911666342E+03  0.5160784212226737E+03  0.0000000000000000E+00 0.  1
  13 +1 1 2   0   0 -0.2464919481515789E+02 -0.3128361575998223E+02  0.4352952080148289E+03  0.4371134469914269E+03  0.0000000000000000E+00 0. -1
   1 +1 1 2 501   0 -0.9017163771189804E+01 -0.6213739808126322E+01  0.7417832798725590E+02  0.7498229222866198E+02  0.0000000000000000E+00 0. -1
   #pdf1pdf2  0.1729557287592973E-03
</event>
<event>
  5   1  0.2401515482509494E+02  0.9428369570232631E+02  0.7546888109483510E-02  0.1174085231576946E+00
   2 -1 0 0 502   0  0.1418701039182301E+00 -0.2783880621165695E+01  0.7432428943599067E+03  0.7432428943599067E+03  0.2787493217801196E+01 0.  9
  21 -1 0 0 501 502 -0.5002738401614069E+01  0.4509112456835644E+01 -0.5550472255844794E+01  0.5550472255844794E+01  0.6734945186367479E+01 0.  9
 -13 +1 1 2   0   0 -0.3443551623771653E+02  0.9129574618597346E+01  0.3462137475114426E+03  0.3480418263329733E+03  0.0000000000000000E+00 0.  1
  13 +1 1 2   0   0  0.2233640676671972E+02 -0.3024586901840470E+02  0.8046622852995745E+02  0.8881746221189948E+02  0.0000000000000000E+00 0. -1
   2 +1 1 2 501   0  0.7238241173300973E+01  0.2284152623547730E+02  0.3110124460626619E+03  0.3119340780708787E+03  0.0000000000000000E+00 0.  1
   #pdf1pdf2  0.7811436660953008E-03
</event>
<event>
  5  26  0.2401515482509494E+02  0.9372672708713642E+02  0.7546888109483510E-02  0.1175129931763715E+00
   2 -1 0 0 501   0  0.1111668956874784E+01 -0.1338670064546894E+01  0.5028166617841198E+03  0.5028166617841198E+03  0.1740070519086240E+01 0.  9
  -2 -1 0 0   0 502  0.1931142220629906E+01  0.2048799055683466E+01 -0.6754313784551662E+01  0.6754313784551662E+01  0.2815472934849288E+01 0.  9
 -13 +1 1 2   0   0  0.3418945653000203E+02  0.4263751545328643E+02  0.2813560179897272E+03  0.2866148731676042E+03  0.0000000000000000E+00 0.  1
  13 +1 1 2   0   0 -0.3098368083837488E+02 -0.2026209177701596E+02  0.1110030563545423E+03  0.1170137571464321E+03  0.0000000000000000E+00 0. -1
  21 +1 1 2 501 502 -0.1629645141224509E+00 -0.2166529468513389E+02  0.1037032736552987E+03  0.1059423452546352E+03  0.0000000000000000E+00 0. -1
   #pdf1pdf2  0.5701812256483778E-03
</event>
<event>
  5   2  0.2401515482509494E+02  0.9193376220386342E+02  0.7546888109483510E-02  0.1178548975567440E+00
   1 -1 0 0 502   0 -0.6968141047473491E-02  0.3086106708811622E+01  0.6106142456654757E+03  0.6106142456654757E+03  0.3086114575507811E+01 0.  9
  21 -1 0 0 501 502  0.2848296719819001E+00 -0.6373724522329185E+00 -0.4189527425834654E+01  0.4189527425834654E+01  0.6981200361733796E+00 0.  9
 -13 +1 1 2   0   0  0.3955516071240749E+02 -0.1339242670798591E+02  0.2638132765027780E+03  0.2670981330733039E+03  0.0000000000000000E+00 0. -1
  13 +1 1 2   0   0 -0.4576783806607381E+02  0.6125106276369698E+01  0.2995043982288601E+03  0.3030430604494530E+03  0.0000000000000000E+00 0.  1
   1 +1 1 2 501   0  0.6490538884600752E+01  0.9716054688194914E+01  0.4310704350800290E+02  0.4466257956855340E+02  0.0000000000000000E+00 0. -1
   #pdf1pdf2  0.1132951441666988E-02
</event>
<event>
  5   1  0.2401515482509494E+02  0.9574356063305676E+02  0.7546888109483510E-02  0.1171384927043709E+00
   2 -1 0 0 502   0  0.8558322568402863E+00  0.6237572241816158E+00  0.1375288395319881E+04  0.1375288395319881E+04  0.1059019323037636E+01 0.  9
  21 -1 0 0 501 502  0.8971656084773649E+01  0.1137687344431518E+02 -0.2134326213257320E+01  0.2134326213257320E+01  0.1448874950682149E+02 0.  9
 -13 +1 1 2   0   0  0.1526258314660803E+02  0.3781139682007199E+02  0.2485411929196519E+03  0.2518637980173326E+03  0.0000000000000000E+00 0. -1
  13 +1 1 2   0   0 -0.1674085712043588E+02  0.1091302949565602E+01  0.3637499341760234E+03  0.3641365977930754E+03  0.0000000000000000E+00 0.  1
   2 +1 1 2 501   0  0.1130576231544179E+02 -0.2690206910114080E+02  0.7608629420109480E+03  0.7614223257227300E+03  0.0000000000000000E+00 0.  1
   #pdf1pdf2  0.1166408441010729E-02
</event>
<event>
  5  26  0.2401515482509494E+02  0.9211780082995115E+02  0.7546888109483510E-02  0.1178194023061400E+00
   2 -1 0 0 501   0  0.2565269860593515E+01  0.2154467372519634E+01  0.9548493419601418E+03  0.9548493419601418E+03  0.3349975987514109E+01 0.  9
  -2 -1 0 0   0 502 -0.1129892382758937E+02  0.1774128777770034E+01 -0.5517901702787682E+01  0.5517901702787682E+01  0.1143736038523657E+02 0.  9
 -13 +1 1 2   0   0  0.2750078215317518E+02 -0.3468814516601415E+02  0.2799492472433795E+03  0.2834274889036519E+03  0.0000000000000000E+00 0. -1
  13 +1 1 2   0   0 -0.2728676206516433E+02  0.2911197727336672E+02  0.1037682305519551E+03  0.1111751783297406E+03  0.0000000000000000E+00 0.  1
  21 +1 1 2 501 502 -0.8947674055006704E+01  0.9504764042937104E+01  0.5656139624620196E+03  0.5657645764295370E+03  0.0000000000000000E+00 0.  1
   #pdf1pdf2  0.8590903197682835E-05
</event>
<event>
  5  27  0.2401515482509494E+02  0.9311870834957064E+02  0.7546888109483510E-02  0.1176279709840515E+00
   1 -1 0 0 501   0 -0.2465661133415698E+00 -0.5523357366870680E+00  0.3784913738336089E+03  0.3784913738336089E+03  0.6048715684093724E+00 0.  9
  -1 -1 0 0   0 502 -0.2297135261836522E+01 -0.1830739396598619E+01 -0.8696748301325552E+01  0.8696748301325552E+01  0.2937420152009416E+01 0.  9
 -13 +1 1 2   0   0 -0.2349707564983217E+02  0.3023150798221391E+02  0.1011427405984349E+03  0.1081476334217947E+03  0.0000000000000000E+00 0.  1
  13 +1 1 2   0   0  0.3946642146282144E+02 -0.3623025860717298E+02  0.2282350206894980E+03  0.2344385947982100E+03  0.0000000000000000E+00 0. -1
  21 +1 1 2 501 502 -0.1851304718816736E+02  0.3615675491673384E+01  0.4041686424435045E+02  0.4460189391492981E+02  0.0000000000000000E+00 0.  1
   #pdf1pdf2  0.9001940356850046E-03
</event>
<event>
  5  26  0.2401515482509494E+02  0.9387788868668005E+02  0.7546888109483510E-02  0.1174845597034660E+00
   2 -1 0 0 501   0  0.4853886854887653E+00  0.2087679655586062E+01  0.1529457557407361E+04  0.1529457557407361E+04  0.2143363832938414E+01 0.  9
  -2 -1 0 0   0 502 -0.7854151877986095E+02  0.1798071415407959E+02 -0.3739962328859385E+01  0.3739962328859385E+01  0.8057342150944049E+02 0.  9
 -13 +1 1 2   0   0 -0.7834563627184136E+02  0.1255061458564950E+02  0.1375059932313501E+04  0.1377347223507321E+04  0.0000000000000000E+00 0. -1
  13 +1 1 2   0   0 -0.9125658265216032E+01 -0.1270905551466422E+02  0.3970131739921999E+02  0.4267308676533642E+02  0.0000000000000000E+00 0.  1
  21 +1 1 2 501 502  0.9415164442685210E+01  0.2022683473868037E+02  0.1109563453657811E+03  0.1131772094635629E+03  0.0000000000000000E+00 0.  1
   #pdf1pdf2  0.3247263675784948E-07
</event>
<event>
  5  26  0.2401515482509494E+02  0.9305497832575045E+02  0.7546888109483510E-02  0.1176400793979874E+00
   2 -1 0 0 501   0  0.1319090933738863E+01 -0.3268308209834001E+01  0.7690455670981200E+03  0.7690455670981200E+03  0.3524463001074121E+01 0.  9
  -2 -1 0 0   0 502  0.3777666840637465E+00 -0.7735904027432266E+01 -0.5145670066178577E+01  0.5145670066178577E+01  0.7745122257862123E+01 0.  9
 -13 +1 1 2   0   0 -0.2797517558320591E+02 -0.1171434729044225E+02  0.5623200171066595E+03  0.5631373171973121E+03  0.0000000000000000E+00 0.  1
  13 +1 1 2   0   0  0.3829401321089978E+02  0.1712971582355265E+02  0.1620163981891163E+03  0.1673594093386044E+03  0.0000000000000000E+00 0. -1
  21 +1 1 2 501 502 -0.8621980009891258E+01 -0.1641958077037667E+02  0.3956348173616561E+02  0.4369451062838212E+02  0.0000000000000000E+00 0.  1
   #pdf1pdf2  0.2201685596928964E-04
</event>
<event>
  5  26  0.2401515482509494E+02  0.9225996286216618E+02  0.7546888109483510E-02  0.1177920472107501E+00
   2 -1 0 0 501   0 -0.1868164702067533E+01  0.1781657550995914E+01  0.8307631043805925E+03  0.8307631043805925E+03  0.2581538878861179E+01 0.  9
  -2 -1 0 0   0 502 -0.2315009663909457E+01  0.8482932556764177E+00 -0.4604256661695556E+01  0.4604256661695556E+01  0.2465536694438002E+01 0.  9
 -13 +1 1 2   0   0 -0.2992752610051948E+01  0.4431753462209933E+02  0.4929674185870055E+03  0.4949645201744281E+03  0.0000000000000000E+00 0. -1
  13 +1 1 2   0   0 -0.1482733876693927E+02 -0.3842454496751343E+02  0.1223597932051399E+03  0.1291054399476437E+03  0.0000000000000000E+00 0.  1
  21 +1 1 2 501 502  0.1363691701101423E+02 -0.3263038847913573E+01  0.2108316359267516E+03  0.2112974009202163E+03  0.0000000000000000E+00 0.  1
   #pdf1pdf2  0.3007545698739299E-03
</event>
<event>
  5   1  0.2401515482509494E+02  0.9487343295845622E+02  0.7546888109483510E-02  0.1172987844265394E+00
   2 -1 0 0 502   0 -0.2896329647449346E+00 -0.4654460380410700E+00  0.1304136221417165E+04  0.1304136221417165E+04  0.5482036743720984E+00 0.  9
  21 -1 0 0 501 502 -0.5637725768563559E+01 -0.1085791189758255E+02 -0.3688755742174540E+01  0.3688755742174540E+01  0.1223430433728009E+02 0.  9
 -13 +1 1 2   0   0 -0.3804412254348257E+02 -0.1609960048243037E+02  0.4621525720404910E+03  0.4639952071298136E+03  0.0000000000000000E+00 0.  1
  13 +1 1 2   0   0  0.5254575131727506E+02 -0.1160475044865606E+02  0.7446757417373382E+03  0.7466174968124758E+03  0.0000000000000000E+00 0. -1
   2 +1 1 2 501   0 -0.2042898750710098E+02  0.1638099299546280E+02  0.9361915189716137E+02  0.9721227321705044E+02  0.0000000000000000E+00 0. -1
   #pdf1pdf2  0.2647273345947488E-02
</event>
<event>
  5  27  0.2401515482509494E+02  0.1008903976428920E+03  0.7546888109483510E-02  0.1162280473460835E+00
   1 -1 0 0 501   0  0.1421079486763233E+01 -0.8377759990607583E+00  0.8756457555357800E+03  0.8756457555357800E+03  0.1649647093260103E+01 0.  9
  -1 -1 0 0   0 502 -0.2103482071140741E+02  0.7684734825655384E+02 -0.8403266478733810E+01  0.8403266478733810E+01  0.7967420295443893E+02 0.  9
 -13 +1 1 2   0   0  0.2658368479171702E+02 -0.1517745052199260E+02  0.1462168612040841E+03  0.1493868059830831E+03  0.0000000000000000E+00 0.  1
  13 +1 1 2   0   0 -0.4925089753878918E+01  0.7853084734069418E+02  0.6175504302053163E+03  0.6225430783005321E+03  0.0000000000000000E+00 0. -1
  21 +1 1 2 501 502 -0.4127233626248228E+02  0.1265617543879151E+02  0.1034751976476458E+03  0.1121191377308987E+03  0.0000000000000000E+00 0. -1
   #pdf1pdf2  0.4074751141608323E-07
</event>
<event>
  5  26  0.2401515482509494E+02  0.9532281190534034E+02  0.7546888109483510E-02  0.1172157620127515E+00
   2 -1 0 0 501   0  0.1243130452336716E+01  0.4183949523180207E+00  0.1080162322447821E+04  0.1080162322447821E+04  0.1311650737678322E+01 0.  9
  -2 -1 0 0   0 502  0.3485379632888270E+01 -0.1117770180972703E+01 -0.3986559502226369E+01  0.3986559502226369E+01  0.3660229687167750E+01 0.  9
 -13 +1 1 2   0   0 -0.1767936558057311E+02  0.3380652977288280E+02  0.1337872335681048E+03  0.1391203266543857E+03  0.0000000000000000E+00 0.  1
  13 +1 1 2   0   0  0.4062124056594496E+02 -0.1354346265063299E+02  0.5722191097834682E+03  0.5738189785699583E+03  0.0000000000000000E+00 0. -1
  21 +1 1 2 501 502 -0.1821336490014686E+02 -0.2096244235090450E+02  0.3701694195940213E+03  0.3712095767257029E+03  0.0000000000000000E+00 0. -1
   #pdf1pdf2  0.5188561419529861E-03
</event>
<event>
  5  26  0.2401515482509494E+02  0.9552280955373357E+02  0.7546888109483510E-02  0.1171789773822580E+00
   2 -1 0 0 501   0  0.8941164915424250E+00  0.3786889890631065E+00  0.2061885326355039E+04  0.2061885326355039E+04  0.9710044546168535E+00 0.  9
  -2 -1 0 0   0 502 -0.8686415719314876E+01 -0.7034914021939004E+01 -0.1710909539734668E+01  0.1710909539734668E+01  0.1117782775609083E+02 0.  9
 -13 +1 1 2   0   0  0.4146674715714123E+02 -0.1071224697715346E+02  0.1296182940501594E+04  0.1296890303226318E+04  0.0000000000000000E+00 0. -1
  13 +1 1 2   0   0 -0.2216185663398889E+02  0.1271983365744573E+02  0.1585028317289243E+03  0.1605493373509410E+03  0.0000000000000000E+00 0.  1
  21 +1 1 2 501 502 -0.2709718975092479E+02 -0.8663811713168165E+01  0.6054886445847862E+03  0.6061565953175140E+03  0.0000000000000000E+00 0.  1
   #pdf1pdf2  0.2619773050736629E-04
</event>
<event>
  5   2  0.2401515482509494E+02  0.9457688247728900E+02  0.7546888109483510E-02  0.1173538546803315E+00
   1 -1 0 0 502   0  0.1113719929083445E+00 -0.1090451627351599E+01  0.9825857987237367E+03  0.9825857987237367E+03  0.1096124296053202E+01 0.  9
  21 -1 0 0 501 502  0.1694185934933620E+02  0.4441458089070209E+02 -0.4023020886447372E+01  0.4023020886447372E+01  0.4753610831683017E+02 0.  9
 -13 +1 1 2   0   0  0.4421812177102075E+02 -0.1942779270837536E+02  0.4462271485473460E+03  0.4488333204243772E+03  0.0000000000000000E+00 0. -1
  13 +1 1 2   0   0 -0.1704588340115994E+02  0.3979316380282681E+02  0.2072432785568675E+03  0.2117164011912254E+03  0.0000000000000000E+00 0.  1
   1 +1 1 2 501   0 -0.1011900702761627E+02  0.2295875816889903E+02  0.3250923507330758E+03  0.3260590979945815E+03  0.0000000000000000E+00 0. -1
   #pdf1pdf2  0.3438353537938916E-04
</event>
<event>
  5  11  0.2401515482509494E+02  0.9956737192431120E+02  0.7546888109483510E-02  0.1164561330923389E+00
  -2 -1 0 0   0 501  0.9053897827327375E+00 -0.1545870699679859E+01  0.4571677598872812E+03  0.4571677598872812E+03  0.1791492918993969E+01 0.  9
  21 -1 0 0 501 502 -0.2945721609467713E+01  0.5218055257668561E+01 -0.1065974366846835E+02  0.1065974366846835E+02  0.5992109517738103E+01 0.  9
 -13 +1 1 2   0   0  0.5981614789510093E+02  0.2602990834702087E+02  0.1753746918013584E+03  0.1871144307689397E+03  0.0000000000000000E+00 0.  1
  13 +1 1 2   0   0 -0.2359583033436368E+02 -0.1076046371938478E+02  0.1699566202087641E+03  0.1719238306384847E+03  0.0000000000000000E+00 0. -1
  -2 +1 1 2   0 502 -0.3826064938747223E+02 -0.1159726006964739E+02  0.1011767042086904E+03  0.1087892421483253E+03  0.0000000000000000E+00 0.  1
   #pdf1pdf2  0.2154204463006588E-03
</event>
<event>
  5   1  0.2401515482509494E+02  0.9598162181093053E+02  0.7546888109483510E-02  0.1170949703519914E+00
   2 -1 0 0 502   0 -0.5861842060465273E+00  0.3551728863231677E+01  0.1005198220431665E+04  0.1005198220431665E+04  0.3599776359905068E+01 0.  9
  21 -1 0 0 501 502  0.5181008972643203E+01 -0.9844406837588714E+01 -0.4440163086785502E+01  0.4440163086785502E+01  0.1112453144894529E+02 0.  9
 -13 +1 1 2   0   0  0.2188656288054806E+02 -0.9660929003911022E+01  0.7943510046699456E+02  0.8295957069648030E+02  0.0000000000000000E+00 0.  1
  13 +1 1 2   0   0 -0.3935218984154982E+02  0.2362955345044480E+02  0.8128878468722580E+03  0.8141827818335441E+03  0.0000000000000000E+00 0. -1
   2 +1 1 2 501   0  0.2206045172759843E+02 -0.2026130242089082E+02  0.1084351100056267E+03  0.1124960309884258E+03  0.0000000000000000E+00 0. -1
   #pdf1pdf2  0.1639672565906020E-03
</event>
<event>
  5   1  0.2401515482509494E+02  0.9498025285407053E+02  0.7546888109483510E-02  0.1172790029055035E+00
   2 -1 0 0 502   0 -0.5874645909870010E+01 -0.1526696961159774E+01  0.1534221228293993E+04  0.1534221228293993E+04  0.6069783206801288E+01 0.  9
  21 -1 0 0 501 502 -0.1976182541877190E+02  0.6032086288115864E+00 -0.2827326401509278E+01  0.2827326401509278E+01  0.1977102942519413E+02 0.  9
 -13 +1 1 2   0   0  0.3810345981697405E+02  0.8453908689114083E+01  0.9157774954732646E+03  0.9166088388388107E+03  0.0000000000000000E+00 0. -1
  13 +1 1 2   0   0 -0.4389594644936219E+02  0.8291131054130819E+01  0.4906781393980549E+03  0.4927074521985425E+03  0.0000000000000000E+00 0.  1
   2 +1 1 2 501   0 -0.1984398469625378E+02 -0.1766852807559309E+02  0.1249382670211642E+03  0.1277322636581490E+03  0.0000000000000000E+00 0. -1
   #pdf1pdf2  0.5470340796150232E-05
</event>
<event>
  5   1  0.2401515482509494E+02  0.9483717228891227E+02  0.7546888109483510E-02  0.1173055060220190E+00
   2 -1 0 0 502   0 -0.2365156623528095E+00  0.1088352740219980E+01  0.1861988877257339E+04  0.1861988877257339E+04  0.1113755514321939E+01 0.  9
  21 -1 0 0 501 502 -0.2044464244634191E+02 -0.1761202028020721E+02 -0.6589629982026382E+01  0.6589629982026382E+01  0.2698456342261618E+02 0.  9
 -13 +1 1 2   0   0 -0.5720635117485335E+02  0.2848962421210011E+02  0.2614948496304440E+03  0.2691909762338549E+03  0.0000000000000000E+00 0. -1
  13 +1 1 2   0   0  0.1550828829755310E+02 -0.2961552754866498E+02  0.1036998183632464E+03  0.1089552146823458E+03  0.0000000000000000E+00 0.  1
   2 +1 1 2 501   0  0.2101690476860554E+02 -0.1539776420342236E+02  0.1490204579281622E+04  0.1490432316323164E+04  0.0000000000000000E+00 0. -1
   #pdf1pdf2  0.6795044945157828E-04
</event>
<event>
  5  27  0.2401515482509494E+02  0.9437931298929220E+02  0.7546888109483510E-02  0.1173906696271334E+00
   1 -1 0 0 501   0  0.6831599589523640E+00 -0.3311936379822874E-01  0.3090701418398649E+03  0.3090701418398649E+03  0.6839622955793654E+00 0.  9
  -1 -1 0 0   0 502 -0.1887072098359923E+01  0.9242829188562492E+00 -0.1165095312752191E+02  0.1165095312752191E+02  0.2101271048317649E+01 0.  9
 -13 +1 1 2   0   0  0.3440428984290896E+02  0.9048004744802187E+01  0.9685458381436740E+02  0.1031810639376779E+03  0.0000000000000000E+00 0.  1
  13 +1 1 2   0   0 -0.5966268450850187E+02 -0.4475975600209051E+01  0.1381458740518376E+03  0.1505455173622944E+03  0.0000000000000000E+00 0. -1
  21 +1 1 2 501 502  0.2405448252618535E+02 -0.3680865589535115E+01  0.6241873084613798E+02  0.6699451366741457E+02  0.0000000000000000E+00 0. -1
   #pdf1pdf2  0.1200966598845097E-02
</event>
<event>
  5  26  0.2401515482509494E+02  0.9214675214588082E+02  0.7546888109483510E-02  0.1178138269586497E+00
   2 -1 0 0 501   0  0.2420652178164284E+02  0.1696831803464830E+02  0.6057794241860690E+03  0.6057794241860690E+03  0.2956145317284183E+02 0.  9
  -2 -1 0 0   0 502 -0.1017535943455784E+02  0.1007195242923957E+02 -0.5558694275305237E+01  0.5558694275305237E+01  0.1431719823706126E+02 0.  9
 -13 +1 1 2   0   0  0.3966710954868140E+02 -0.1093985629266801E+02  0.1507113887015279E+03  0.1562276631073842E+03  0.0000000000000000E+00 0.  1
  13 +1 1 2   0   0 -0.2210361989653360E+02  0.5075740250705537E+02  0.3041091984249517E+03  0.3091072443157234E+03  0.0000000000000000E+00 0. -1
  21 +1 1 2 501 502 -0.3532327305062790E+01 -0.1277727575049949E+02  0.1454001427842842E+03  0.1460032110382666E+03  0.0000000000000000E+00 0. -1
   #pdf1pdf2  0.1113123061167472E-07
</event>
<event>
  5  23  0.2401515482509494E+02  0.9203657398260327E+02  0.7546888109483510E-02  0.1178350569522649E+00
  -3 -1 0 0   0 502 -0.2165675843398695E+01 -0.5144942291117707E+01  0.4297191186004080E+03  0.4297191186004080E+03  0.5582166518262615E+01 0.  9
   3 -1 0 0 501   0  0.2847276475045096E+02  0.3645066161314784E+02 -0.8277455246803145E+01  0.8277455246803145E+01  0.4625309789160865E+02 0.  9
 -13 +1 1 2   0   0  0.4067499128961697E+02 -0.1813338285709088E+02  0.1575305987180609E+03  0.1637045021455518E+03  0.0000000000000000E+00 0.  1
  13 +1 1 2   0   0 -0.7515721941786943E+01  0.5985499169573119E+02  0.1903006457002638E+03  0.1996332684227247E+03  0.0000000000000000E+00 0. -1
  21 +1 1 2 501 502 -0.6852180440777758E+01 -0.1041588951661017E+02  0.7361041893528017E+02  0.7465880327893463E+02  0.0000000000000000E+00 0.  1
   #pdf1pdf2  0.6627079119095483E-08
</event>
<event>
  5   1  0.2401515482509494E+02  0.1019271132412696E+03  0.7546888109483510E-02  0.1160520397339311E+00
   2 -1 0 0 502   0  0.1694806684351400E+00  0.8716587224830843E+00  0.6166437583324268E+03  0.6166437583324268E+03  0.8879823339763379E+00 0.  9
  21 -1 0 0 501 502  0.3061507228377906E+02  0.2740331096768866E+02 -0.8839227336125798E+01  0.8839227336125798E+01  0.4108800436785489E+02 0.  9
 -13 +1 1 2   0   0 -0.4279235319668122E+02 -0.2131948561254222E+02  0.2958373842927855E+03  0.2996755977788151E+03  0.0000000000000000E+00 0.  1
  13 +1 1 2   0   0  0.3486656958137628E+02  0.2560782491643455E+02  0.2055961327744665E+03  0.2100980918122289E+03  0.0000000000000000E+00 0. -1
   2 +1 1 2 501   0  0.3871033656751913E+02  0.2398663038627942E+02  0.1063710139290491E+03  0.1157092960775086E+03  0.0000000000000000E+00 0. -1
   #pdf1pdf2  0.1070120938324549E-03
</event>
<event>
  5  27  0.2401515482509494E+02  0.9176223987645761E+02  0.7546888109483510E-02  0.1178880626340011E+00
   1 -1 0 0 501   0  0.1668158245498246E+01 -0.2893493405454960E+01  0.5505069029948287E+03  0.5505069029948287E+03  0.3339918564790934E+01 0.  9
  -1 -1 0 0   0 502  0.2585418110133971E+01 -0.2201566553886642E+01 -0.4360942292964655E+01  0.4360942292964655E+01  0.3395774152590396E+01 0.  9
 -13 +1 1 2   0   0 -0.3540249593605192E+02  0.2748247911469802E+02  0.2170839545855252E+03  0.2216620551995364E+03  0.0000000000000000E+00 0.  1
  13 +1 1 2   0   0  0.3491922478997790E+02 -0.2349001335742518E+02  0.2703829646737494E+03  0.2736385948166505E+03  0.0000000000000000E+00 0. -1
  21 +1 1 2 501 502  0.4736847501706232E+01 -0.9087525716614447E+01  0.5867904144258944E+02  0.5956719527160632E+02  0.0000000000000000E+00 0. -1
   #pdf1pdf2  0.6554307569591528E-04
</event>
<event>
  5  26  0.2401515482509494E+02  0.9218369263444265E+02  0.7546888109483510E-02  0.1178067164112855E+00
   2 -1 0 0 501   0 -0.3104254733967493E+01 -0.3723991270928027E-01  0.5922224681198264E+03  0.5922224681198264E+03  0.3104478098563136E+01 0.  9
  -2 -1 0 0   0 502  0.4653582691078093E+01 -0.4208998711777682E+01 -0.5555625839230598E+01  0.5555625839230598E+01  0.6274671466973216E+01 0.  9
 -13 +1 1 2   0   0 -0.3816844322879191E+02 -0.3059943669980750E+02  0.2386851170720537E+03  0.2436467539216458E+03  0.0000000000000000E+00 0.  1
  13 +1 1 2   0   0  0.4078183960078036E+02  0.1288422903942708E+02  0.1585100773694574E+03  0.1641785809015158E+03  0.0000000000000000E+00 0. -1
  21 +1 1 2 501 502 -0.1064068414877848E+01  0.1346896903589345E+02  0.1894716478390846E+03  0.1899527591358954E+03  0.0000000000000000E+00 0.  1
   #pdf1pdf2  0.5029008753955246E-04
</event>
<event>
  5   1  0.2401515482509494E+02  0.9402458090419525E+02  0.7546888109483510E-02  0.1174570242002402E+00
   2 -1 0 0 502   0  0.1348143621232688E+01  0.2103644774156807E+01  0.7186773386382775E+03  0.7186773386382775E+03  0.2498562098349294E+01 0.  9
  21 -1 0 0 501 502  0.2046942278587852E+01  0.2291694193451586E+01 -0.5827124656215830E+01  0.5827124656215830E+01  0.3072756900272156E+01 0.  9
 -13 +1 1 2   0   0 -0.3437091272884322E+01 -0.3125050396555471E+02  0.1024237457807684E+03  0.1071402412461479E+03  0.0000000000000000E+00 0. -1
  13 +1 1 2   0   0 -0.1306921352332398E+02  0.4701547983737315E+02  0.5582095371233152E+03  0.5603384218683228E+03  0.0000000000000000E+00 0.  1
   2 +1 1 2 501   0  0.1990139069602884E+02 -0.1136963690421005E+02  0.5221693107797819E+02  0.5702580018002276E+02  0.0000000000000000E+00 0.  1
   #pdf1pdf2  0.2136384367683559E-02
</event>
<event>
  5  26  0.2401515482509494E+02  0.9184127473520282E+02  0.7546888109483510E-02  0.1178727706047770E+00
   2 -1 0 0 501   0 -0.4865733682911084E+01  0.2260121826061150E+00  0.1450170952717977E+04  0.1450170952717977E+04  0.4870979960921811E+01 0.  9
  -2 -1 0 0   0 502 -0.7030905048028191E-01 -0.2848722753059645E+01 -0.1806368700599219E+01  0.1806368700599219E+01  0.2849590266403077E+01 0.  9
 -13 +1 1 2   0   0  0.1512478680963925E+02 -0.4609210463096861E+02  0.6343220510152370E+03  0.6361742730490805E+03  0.0000000000000000E+00 0.  1
  13 +1 1 2   0   0 -0.9437330933856137E+01  0.4088613970837056E+02  0.6923397641224366E+03  0.6936101849169449E+03  0.0000000000000000E+00 0. -1
  21 +1 1 2 501 502 -0.1062349860917448E+02  0.2583254352144515E+01  0.1217027688797045E+03  0.1221928634525510E+03  0.0000000000000000E+00 0.  1
   #pdf1pdf2  0.2222874293430891E-04
</event>
<event>
  5  27  0.2401515482509494E+02  0.9304361107668510E+02  0.7546888109483510E-02  0.1176422402646286E+00
   1 -1 0 0 501   0 -0.1302554520249015E+01 -0.5049693408357979E+01  0.9340029733704753E+03  0.9340029733704753E+03  0.5214983393706557E+01 0.  9
  -1 -1 0 0   0 502 -0.2305427141638754E+01  0.3895248331494801E-01 -0.3751904015446446E+01  0.3751904015446446E+01  0.2305756188620348E+01 0.  9
 -13 +1 1 2   0   0 -0.4100395460408409E+02  0.2010537188220562E+02  0.1869935956574136E+03  0.1924893635725981E+03  0.0000000000000000E+00 0. -1
  13 +1 1 2   0   0  0.1958314682420465E+02 -0.3006878568556716E+02  0.4522794596480205E+03  0.4537007175789436E+03  0.0000000000000000E+00 0.  1
  21 +1 1 2 501 502  0.1781282611799167E+02  0.4952672878318511E+01  0.2909780140495947E+03  0.2915647962343800E+03  0.0000000000000000E+00 0. -1
   #pdf1pdf2  0.1980802952648549E-04
</event>
<event>
  5  27  0.2401515482509494E+02  0.9266411890180409E+02  0.7546888109483510E-02  0.1177145791628594E+00
   1 -1 0 0 501   0 -0.2084850852010690E+01  0.4762098970968609E+00  0.7098039592210487E+03  0.7098039592210487E+03  0.2138545987633350E+01 0.  9
  -1 -1 0 0   0 502 -0.8433658598641562E+01 -0.3407124190678803E+01 -0.4800588231041385E+01  0.4800588231041385E+01  0.9095883278118153E+01 0.  9
 -13 +1 1 2   0   0 -0.4618470460472371E+02 -0.1822651333032240E+02  0.1865259105068891E+03  0.1930211077007642E+03  0.0000000000000000E+00 0.  1
  13 +1 1 2   0   0  0.2397490428684595E+02  0.3691081361902905E+01  0.4648628564349440E+03  0.4654953226510863E+03  0.0000000000000000E+00 0. -1
  21 +1 1 2 501 502  0.1169129086722551E+02  0.1160451767483755E+02  0.5361460404817419E+02  0.5608811710023954E+02  0.0000000000000000E+00 0.  1
   #pdf1pdf2  0.2278143076376152E-04
</event>
<event>
  5  26  0.2401515482509494E+02  0.9722450804044182E+02  0.7546888109483510E-02  0.1168700224609781E+00
   2 -1 0 0 501   0 -0.1429284041680487E+01 -0.2068756992123968E+00  0.1119532933370613E+04  0.1119532933370613E+04  0.1444178114612988E+01 0.  9
  -2 -1 0 0   0 502  0.5118270660546579E+01  0.3265316686277913E+01 -0.2901638051625743E+01  0.2901638051625743E+01  0.6071160318777366E+01 0.  9
 -13 +1 1 2   0   0 -0.2254013301413775E+02 -0.1608050672315264E+02  0.1473067161402978E+03  0.1498863199655214E+03  0.0000000000000000E+00 0. -1
  13 +1 1 2   0   0 -0.7450367193103595E+00  0.3938029236779578E+02  0.7021202110491506E+03  0.7032241131178523E+03  0.0000000000000000E+00 0.  1
  21 +1 1 2 501 502  0.2697415635231420E+02 -0.2024134465757762E+02  0.2672043681295393E+03  0.2693241383388653E+03  0.0000000000000000E+00 0.  1
   #pdf1pdf2  0.2025620409288065E-03
</event>
<event>
  5  26  0.2401515482509494E+02  0.9202140200151877E+02  0.7546888109483510E-02  0.1178379830143611E+00
   2 -1 0 0 501   0  0.1003555310178364E+01  0.3456336371409665E-01  0.7302549010724434E+03  0.7302549010724434E+03  0.1004150330726642E+01 0.  9
  -2 -1 0 0   0 502  0.1605627401562497E+02 -0.6811547883238754E+01 -0.4720721941031031E+01  0.4720721941031031E+01  0.1744136232725208E+02 0.  9
 -13 +1 1 2   0   0  0.2190988233891314E+01 -0.3547700979209149E+02  0.8941198921438519E+02  0.9621809844567986E+02  0.0000000000000000E+00 0.  1
  13 +1 1 2   0   0  0.2002521588807956E+02  0.3992777687502812E+02  0.4449392154369874E+03  0.4471757395825807E+03  0.0000000000000000E+00 0. -1
  21 +1 1 2 501 502 -0.5156374796167540E+01 -0.1122775160246128E+02  0.1911829744800399E+03  0.1915817849852138E+03  0.0000000000000000E+00 0. -1
   #pdf1pdf2  0.3911328533073439E-04
</event>
<event>
  5   2  0.2401515482509494E+02  0.9554178197830018E+02  0.7546888109483510E-02  0.1171754931161787E+00
   1 -1 0 0 502   0  0.3077016036370201E+00 -0.1552516926965216E+01  0.7453623601092983E+03  0.7453623601092983E+03  0.1582715731075645E+01 0.  9
  21 -1 0 0 501 502 -0.5537948027411926E+01 -0.3020226166990549E+02 -0.5343927512081328E+01  0.5343927512081328E+01  0.3070578900356996E+02 0.  9
 -13 +1 1 2   0   0 -0.3412112523932903E+02 -0.2842560122053660E+02  0.2447508899531822E+03  0.2487473901877599E+03  0.0000000000000000E+00 0.  1
  13 +1 1 2   0   0  0.5056662083842393E+02  0.1519395659465044E+02  0.2979889185278128E+03  0.3026305256007604E+03  0.0000000000000000E+00 0. -1
   1 +1 1 2 501   0 -0.2167574202286981E+02 -0.1852313397098455E+02  0.1972786241162220E+03  0.1993283718328594E+03  0.0000000000000000E+00 0. -1
   #pdf1pdf2  0.6376716533695427E-04
</event>
<event>
  5   1  0.2401515482509494E+02  0.9928015837479468E+02  0.7546888109483510E-02  0.1165061750719541E+00
   2 -1 0 0 502   0 -0.3750363501375655E+01 -0.2911407651135490E+01  0.1526485872073025E+04  0.1526485872073025E+04  0.4747791160480938E+01 0.  9
  21 -1 0 0 501 502  0.6104396925679094E+01 -0.6103546541000672E+01 -0.3547705534184380E+01  0.3547705534184380E+01  0.8632319630574486E+01 0.  9
 -13 +1 1 2   0   0  0.4617061781872499E+02  0.4007967095833791E+02  0.9024522895283826E+03  0.9045210007782633E+03  0.0000000000000000E+00 0. -1
  13 +1 1 2   0   0 -0.3089297464499689E+02 -0.1202385042524216E+02  0.4141798967457676E+03  0.4155044352709122E+03  0.0000000000000000E+00 0.  1
   2 +1 1 2 501   0 -0.1292360974942466E+02 -0.3707077472523191E+02  0.2063059802646904E+03  0.2100081415580338E+03  0.0000000000000000E+00 0. -1
   #pdf1pdf2  0.4526858322928082E-04
</event>
<event>
  5  26  0.2401515482509494E+02  0.9229657178670853E+02  0.7546888109483510E-02  0.1177850117823501E+00
   2 -1 0 0 501   0 -0.5034891800039900E+01  0.4477800591501622E+01  0.7719620206618982E+03  0.7719620206618982E+03  0.6738014067613787E+01 0.  9
  -2 -1 0 0   0 502  0.5266217335080937E+00 -0.1469694591709862E+02 -0.3034321194303254E+01  0.3034321194303254E+01  0.1470637785929373E+02 0.  9
 -13 +1 1 2   0   0  0.1068245701824988E+01 -0.2834472351953669E+02  0.5977340165164256E+03  0.5984066501979545E+03  0.0000000000000000E+00 0. -1
  13 +1 1 2   0   0 -0.1948864018911077E+02  0.1499154908742165E+02  0.6595232730515465E+02  0.7038652653333196E+02  0.0000000000000000E+00 0.  1
  21 +1 1 2 501 502  0.1391212442075397E+02  0.3134029106518039E+01  0.1052413556460147E+03  0.1062031651249151E+03  0.0000000000000000E+00 0. -1
   #pdf1pdf2  0.1285888236415856E-05
</event>
<event>
  5  26  0.2401515482509494E+02  0.9285692994054098E+02  0.7546888109483510E-02  0.1176777770990448E+00
   2 -1 0 0 501   0 -0.3542087715101158E+01 -0.5199269123970168E+00  0.7808383128167263E+03  0.7808383128167263E+03  0.3580043208636628E+01 0.  9
  -2 -1 0 0   0 502  0.7969892199423356E-02 -0.3297974188683497E+00 -0.6392942068137044E+01  0.6392942068137044E+01  0.3298937051140808E+00 0.  9
 -13 +1 1 2   0   0 -0.1078758966126597E+02 -0.4427495551154264E+02  0.1291499423860743E+03  0.1369538294264722E+03  0.0000000000000000E+00 0.  1
  13 +1 1 2   0   0  0.2195564003220492E+02  0.3388752342932601E+02  0.1727149726311775E+03  0.1773721402711972E+03  0.0000000000000000E+00 0. -1
  21 +1 1 2 501 502 -0.1470216819384068E+02  0.9537707750951260E+01  0.4725804557313376E+03  0.4729052851871940E+03  0.0000000000000000E+00 0. -1
   #pdf1pdf2  0.5343009032707881E-03
</event>
<event>
  5   1  0.2401515482509494E+02  0.9344968273558123E+02  0.7546888109483510E-02  0.1175652614199416E+00
   2 -1 0 0 502   0  0.1521343994534952E+02 -0.1778174403109683E+02  0.1005774014275733E+04  0.1005774014275733E+04  0.2340169172855254E+02 0.  9
  21 -1 0 0 501 502  0.3502258819436904E+01  0.1364543903976611E+02 -0.4050895303758645E+01  0.4050895303758645E+01  0.1408771888654429E+02 0.  9
 -13 +1 1 2   0   0  0.2416055130760067E+02  0.3321382962244699E+00  0.8762156138390751E+03  0.8765487119896545E+03  0.0000000000000000E+00 0. -1
  13 +1 1 2   0   0 -0.2394190988590054E+02  0.4215694769118477E+01  0.7244578973905186E+02  0.7641583332193575E+02  0.0000000000000000E+00 0.  1
   2 +1 1 2 501   0  0.1849705734308629E+02 -0.8684138056673666E+01  0.5306171539384718E+02  0.5686036426790132E+02  0.0000000000000000E+00 0. -1
   #pdf1pdf2  0.2815129703620552E-06
</event>
<event>
  5   2  0.2401515482509494E+02  0.1008322251039707E+03  0.7546888109483510E-02  0.1162379934845859E+00
   1 -1 0 0 502   0 -0.2325881377230670E+00 -0.7217453546126269E+00  0.9070136987332326E+03  0.9070136987332326E+03  0.7582965110788727E+00 0.  9
  21 -1 0 0 501 502 -0.5866206818010384E+01 -0.6264065976875361E+02 -0.5479874725917075E+01  0.5479874725917075E+01  0.6291474102860488E+02 0.  9
 -13 +1 1 2   0   0  0.3816182127829391E+02 -0.5980305245573343E+01  0.1607749338792483E+03  0.1653501376412591E+03  0.0000000000000000E+00 0.  1
  13 +1 1 2   0   0 -0.3762324923289376E+02 -0.1486392541709810E+02  0.5546889443049633E+03  0.5561620897686215E+03  0.0000000000000000E+00 0. -1
   1 +1 1 2 501   0 -0.6637367001133610E+01 -0.4251817446069479E+02  0.1860699458231039E+03  0.1909813460492690E+03  0.0000000000000000E+00 0. -1
   #pdf1pdf2  0.2122251864584337E-04
</event>
<event>
  5   1  0.2401515482509494E+02  0.9223921064955930E+02  0.7546888109483510E-02  0.1177960369516409E+00
   2 -1 0 0 502   0  0.2605198794949629E+01 -0.2783664843521370E+00  0.1238741011824716E+04  0.1238741011824716E+04  0.2620028370231431E+01 0.  9
  21 -1 0 0 501 502 -0.1180088783362028E+02  0.1305402193347719E+02 -0.2352265351073664E+01  0.2352265351073664E+01  0.1759739873678467E+02 0.  9
 -13 +1 1 2   0   0 -0.2084755994499048E+02 -0.4163491334159627E+02  0.4659030066678370E+03  0.4682239831392159E+03  0.0000000000000000E+00 0.  1
  13 +1 1 2   0   0  0.1052014947056833E+02  0.4057209457548953E+02  0.6833554116657203E+03  0.6846396037740964E+03  0.0000000000000000E+00 0. -1
   2 +1 1 2 501   0  0.1131721435751491E+01  0.1383847421523179E+02  0.8713032814008488E+02  0.8822969026247708E+02  0.0000000000000000E+00 0. -1
   #pdf1pdf2  0.1544412440427114E-03
</event>
<event>
  5  26  0.2401515482509494E+02  0.1009977962928545E+03  0.7546888109483510E-02  0.1162097043971458E+00
   2 -1 0 0 501   0 -0.7943714670449157E+00 -0.1504565013036276E+01  0.1400289175049441E+04  0.1400289175049441E+04  0.1701394106639593E+01 0.  9
  -2 -1 0 0   0 502  0.3510964932874430E+01 -0.4215353294110705E+01 -0.3566897765672238E+01  0.3566897765672238E+01  0.5485989259381021E+01 0.  9
 -13 +1 1 2   0   0  0.3071381901867255E+02 -0.3632402441334659E+02  0.7278620255863511E+03  0.7294147665895990E+03  0.0000000000000000E+00 0.  1
  13 +1 1 2   0   0  0.1424110674283556E+02  0.4066344612693479E+02  0.3476943352050214E+03  0.3503536437741739E+03  0.0000000000000000E+00 0. -1
  21 +1 1 2 501 502 -0.4223833229567859E+02 -0.1005934002073518E+02  0.3211659164923965E+03  0.3240876624513403E+03  0.0000000000000000E+00 0. -1
   #pdf1pdf2  0.1091197140560324E-03
</event>
<event>
  5  27  0.2401515482509494E+02  0.9179935330948915E+02  0.7546888109483510E-02  0.1178808796099426E+00
   1 -1 0 0 501   0  0.5506287574918609E-01  0.2065317764339111E+01  0.9488348453105982E+03  0.9488348453105982E+03  0.2066051642137842E+01 0.  9
  -1 -1 0 0   0 502 -0.9642792947989033E+01 -0.2151647598873946E+02 -0.3134091353875232E+01  0.3134091353875232E+01  0.2357842647022461E+02 0.  9
 -13 +1 1 2   0   0 -0.3301953476515810E+02  0.2365050199783862E+01  0.6916257308270419E+03  0.6924175291546242E+03  0.0000000000000000E+00 0.  1
  13 +1 1 2   0   0  0.2955301824573266E+02 -0.3043967602377877E+02  0.2070475724991089E+03  0.2113495967387660E+03  0.0000000000000000E+00 0. -1
  21 +1 1 2 501 502 -0.6121213552814403E+01  0.8623467599594552E+01  0.4702745063057216E+02  0.4820181077108326E+02  0.0000000000000000E+00 0.  1
   #pdf1pdf2  0.2407344056243419E-05
</event>
<event>
  5  11  0.2401515482509494E+02  0.9204709938976359E+02  0.7546888109483510E-02  0.1178330273974033E+00
  -2 -1 0 0   0 501 -0.2288786975323075E+01  0.6817262540367210E-01  0.3123261976672130E+03  0.3123261976672130E+03  0.2289802027526175E+01 0.  9
  21 -1 0 0 501 502  0.9367281631388696E+01 -0.3767138866452090E+02 -0.5809324227187824E+01  0.5809324227187824E+01  0.3881854568470006E+02 0.  9
 -13 +1 1 2   0   0 -0.1796220021815398E+02  0.1325268630278742E+02  0.4883938661940179E+02  0.5369878970960652E+02  0.0000000000000000E+00 0. -1
  13 +1 1 2   0   0  0.2632892845162832E+02 -0.3837707462937279E+02  0.2134191903033219E+03  0.2184348029052260E+03  0.0000000000000000E+00 0.  1
  -2 +1 1 2   0 502 -0.1288233577408716E+01 -0.1247882771253187E+02  0.4425829651730152E+02  0.4600192927956827E+02  0.0000000000000000E+00 0.  1
   #pdf1pdf2  0.8653696861622724E-05
</event>
<event>
  5  27  0.2401515482509494E+02  0.9200017675935189E+02  0.7546888109483510E-02  0.1178420775656497E+00
   1 -1 0 0 501   0 -0.1510190177125311E+01  0.9784633942908750E+00  0.5096652831594225E+03  0.5096652831594225E+03  0.1799462415571106E+01 0.  9
  -1 -1 0 0   0 502  0.8468796224846152E+00  0.1006984383199028E+01 -0.5320809664848444E+01  0.5320809664848444E+01  0.1315759340831906E+01 0.  9
 -13 +1 1 2   0   0  0.2289018032226727E+02 -0.2267632181785190E+02  0.7453307564994869E+02  0.8119947839865519E+02  0.0000000000000000E+00 0.  1
  13 +1 1 2   0   0 -0.3561798638667306E+02  0.2644856913833778E+02  0.3761246972867187E+03  0.3787320367657488E+03  0.0000000000000000E+00 0. -1
  21 +1 1 2 501 502  0.1206449550976510E+02 -0.1786799542995978E+01  0.5368670055790665E+02  0.5505457765986700E+02  0.0000000000000000E+00 0.  1
   #pdf1pdf2  0.7036351964366016E-03
</event>
<event>
  5   2  0.2401515482509494E+02  0.9242316902217306E+02  0.7546888109483510E-02  0.1177607107127562E+00
   1 -1 0 0 502   0  0.2396025739523970E+00  0.2824692029971748E+00  0.8416456671154933E+03  0.8416456671154933E+03  0.3704028132809914E+00 0.  9
  21 -1 0 0 501 502  0.1720731692659594E+01  0.1160846971660133E-02 -0.3360857418954337E+01  0.3360857418954337E+01  0.1720732084227188E+01 0.  9
 -13 +1 1 2   0   0  0.6207565426556243E+01 -0.2222710060788860E+02  0.6241332361074968E+03  0.6245597443671619E+03  0.0000000000000000E+00 0.  1
  13 +1 1 2   0   0 -0.6673753419639139E+00  0.3713738390402568E+02  0.1459001716899768E+03  0.1505539463854958E+03  0.0000000000000000E+00 0. -1
   1 +1 1 2 501   0 -0.3579855817980339E+01 -0.1462665324616824E+02  0.6825140189906540E+02  0.6989283378178996E+02  0.0000000000000000E+00 0. -1
   #pdf1pdf2  0.1302813566382976E-01
</event>
<event>
  5   1  0.2401515482509494E+02  0.1041851146728786E+03  0.7546888109483510E-02  0.1156766053221760E+00
   2 -1 0 0 502   0  0.1214395421768405E+01 -0.1288486192679000E+01  0.1115712110106487E+04  0.1115712110106487E+04  0.1770579822864953E+01 0.  9
  21 -1 0 0 501 502  0.1240352797549302E+02  0.2323941019176215E+01 -0.5277580966446562E+01  0.5277580966446562E+01  0.1261935846623939E+02 0.  9
 -13 +1 1 2   0   0  0.2209150432857349E+02  0.1672054503899815E+02  0.3782891895381588E+03  0.3793024151140322E+03  0.0000000000000000E+00 0.  1
  13 +1 1 2   0   0 -0.2968983403538877E+02 -0.6139199236507108E+02  0.4183529173411065E+03  0.4238745408955538E+03  0.0000000000000000E+00 0. -1
   2 +1 1 2 501   0  0.2121625310407671E+02  0.4570690215257014E+02  0.3137924222607750E+03  0.3178127350633473E+03  0.0000000000000000E+00 0. -1
   #pdf1pdf2  0.5208531409142931E-03
</event>
<event>
  5  27  0.2401515482509494E+02  0.9199728708436544E+02  0.7546888109483510E-02  0.1178426351070852E+00
   1 -1 0 0 501   0 -0.7577145019594156E+00  0.1007106136389727E+01  0.2068699676859802E+04  0.2068699676859802E+04  0.1260315054434187E+01 0.  9
  -1 -1 0 0   0 502 -0.2110784872514038E+01  0.2261153526161975E+01 -0.1607117923755552E+01  0.1607117923755552E+01  0.3093255250849634E+01 0.  9
 -13 +1 1 2   0   0 -0.3038491172568704E+02 -0.2378473177031819E+02  0.1414508276306707E+04  0.1415034494302572E+04  0.0000000000000000E+00 0. -1
  13 +1 1 2   0   0  0.3791025862138466E+02  0.2071414521646711E+02  0.5855536285542364E+03  0.5871450548491589E+03  0.0000000000000000E+00 0.  1
  21 +1 1 2 501 502 -0.1039384627017107E+02  0.6338846216402777E+01  0.6703065407510326E+02  0.6812724563182714E+02  0.0000000000000000E+00 0.  1
   #pdf1pdf2  0.5082235420442381E-04
</event>
<event>
  5  26  0.2401515482509494E+02  0.9727412670269375E+02  0.7546888109483510E-02  0.1168611204388309E+00
   2 -1 0 0 501   0 -0.5840801721656392E+00 -0.3221262988739854E-01  0.1810817750930996E+04  0.1810817750930996E+04  0.5849677777803707E+00 0.  9
  -2 -1 0 0   0 502 -0.8162360740122240E+02 -0.6365326964088021E+02 -0.3653982503386721E+01  0.3653982503386721E+01  0.1035091881002044E+03 0.  9
 -13 +1 1 2   0   0  0.1273908632000676E+02  0.5763629462576352E+01  0.3511140441791044E+02  0.3779304784015868E+02  0.0000000000000000E+00 0.  1
  13 +1 1 2   0   0 -0.7890124650722829E+02 -0.3962447498062727E+02  0.1002174063827406E+04  0.1006055843343809E+04  0.0000000000000000E+00 0. -1
  21 +1 1 2 501 502 -0.1604552738616650E+02 -0.2982463675271669E+02  0.7698783001822929E+03  0.7706228422504154E+03  0.0000000000000000E+00 0. -1
   #pdf1pdf2  0.3504349641973624E-07
</event>
<event>
  5  27  0.2401515482509494E+02  0.9205592594862679E+02  0.7546888109483510E-02  0.1178313256560232E+00
   1 -1 0 0 501   0 -0.3029216648779778E+01 -0.2673235491028632E+00  0.1022714906431783E+04  0.1022714906431783E+04  0.3040989211613474E+01 0.  9
  -1 -1 0 0   0 502 -0.8011966538056878E+00  0.1416794401796401E+01 -0.2520729674752682E+01  0.2520729674752682E+01  0.1627643221050318E+01 0.  9
 -13 +1 1 2   0   0  0.1755952582137186E+02 -0.1970239519214993E+02  0.7683031270547864E+03  0.7687562789112960E+03  0.0000000000000000E+00 0. -1
  13 +1 1 2   0   0 -0.3189719481304986E+02  0.1388026214738241E+02  0.1608029084042682E+03  0.1645225457665094E+03  0.0000000000000000E+00 0.  1
  21 +1 1 2 501 502  0.1050725568909254E+02  0.6971603897461056E+01  0.9108814129797611E+02  0.9195681142873062E+02  0.0000000000000000E+00 0.  1
   #pdf1pdf2  0.1135246405411960E-03
</event>
<event>
  5  26  0.2401515482509494E+02  0.9942246919303442E+02  0.7546888109483510E-02  0.1164813560394701E+00
   2 -1 0 0 501   0  0.6578513314128702E+00 -0.4263473227880271E-01  0.1331508080749200E+04  0.1331508080749200E+04  0.6592314423919502E+00 0.  9
  -2 -1 0 0   0 502  0.6249158958567337E+01  0.2587883197702634E+01 -0.3357823854442916E+01  0.3357823854442916E+01  0.6763810104844312E+01 0.  9
 -13 +1 1 2   0   0 -0.2747404093986668E+02 -0.4350551765496531E+02  0.6721068659413509E+03  0.6740735807295054E+03  0.0000000000000000E+00 0.  1
  13 +1 1 2   0   0  0.2417011433981244E+02  0.7771838117797266E+01  0.9443698748637394E+02  0.9779028837481972E+02  0.0000000000000000E+00 0. -1
  21 +1 1 2 501 502  0.1021093689003445E+02  0.3827892800259188E+02  0.5616064034670319E+03  0.5630020354993172E+03  0.0000000000000000E+00 0. -1
   #pdf1pdf2  0.3407496926126201E-03
</event>
<event>
  5  27  0.2401515482509494E+02  0.9205210347858204E+02  0.7546888109483510E-02  0.1178320625937288E+00
   1 -1 0 0 501   0 -0.4049285894926082E+00  0.3264375959916550E+01  0.4994381448749443E+03  0.4994381448749443E+03  0.3289394711838269E+01 0.  9
  -1 -1 0 0   0 502 -0.9145242320361726E+01 -0.4060037529123330E+01 -0.5990098941229340E+01  0.5990098941229340E+01  0.1000596631195733E+02 0.  9
 -13 +1 1 2   0   0 -0.4975451234093378E+02  0.8836276969463244E+01  0.3630089082792352E+03  0.3665092888032272E+03  0.0000000000000000E+00 0. -1
  13 +1 1 2   0   0  0.3478056826445935E+02  0.1720797705453297E+01  0.8751281168866416E+02  0.9418673623816362E+02  0.0000000000000000E+00 0.  1
  21 +1 1 2 501 502  0.5423773166620092E+01 -0.1135273624412332E+02  0.4292632596581560E+02  0.4473221877478284E+02  0.0000000000000000E+00 0.  1
   #pdf1pdf2  0.8649505537820737E-05
</event>
<event>
  5  26  0.2401515482509494E+02  0.9678846577921092E+02  0.7546888109483510E-02  0.1169485094280896E+00
   2 -1 0 0 501   0  0.4749080994077733E+00 -0.9613347767132970E+00  0.1847323300885156E+04  0.1847323300885156E+04  0.1072241696541180E+01 0.  9
  -2 -1 0 0   0 502  0.7633453362097983E+02  0.4050317476656083E+02 -0.2673504886394562E+01  0.2673504886394562E+01  0.8641451376535697E+02 0.  9
 -13 +1 1 2   0   0 -0.1256531330779074E+02  0.3493039883498280E+02  0.2454320974445141E+03  0.2482235571361175E+03  0.0000000000000000E+00 0.  1
  13 +1 1 2   0   0  0.5734527057682836E+02 -0.5684637124293488E+00  0.1110410359989422E+04  0.1111890269217408E+04  0.0000000000000000E+00 0. -1
  21 +1 1 2 501 502  0.3202948445134998E+02  0.5179904867294079E+01  0.4888073385648249E+03  0.4898829794180248E+03  0.0000000000000000E+00 0. -1
   #pdf1pdf2  0.7126397695900442E-07
</event>
<event>
  5   1  0.2401515482509494E+02  0.9546068447045852E+02  0.7546888109483510E-02  0.1171903929408610E+00
   2 -1 0 0 502   0 -0.4247198754660332E+00 -0.7611237585915300E+01  0.1297803209632620E+04  0.1297803209632620E+04  0.7623078417664720E+01 0.  9
  21 -1 0 0 501 502 -0.7318366449335615E+01  0.4986851807397211E+01 -0.3237786899542087E+01  0.3237786899542087E+01  0.8855912061199684E+01 0.  9
 -13 +1 1 2   0   0  0.3007923269015504E+02  0.5946932274728624E+01  0.5811028019645545E+03  0.5819111553267946E+03  0.0000000000000000E+00 0.  1
  13 +1 1 2   0   0 -0.5083839280612167E+02 -0.3363197014754365E+02  0.5324242071190059E+03  0.5359022186233389E+03  0.0000000000000000E+00 0. -1
   2 +1 1 2 501   0  0.1301607379116498E+02  0.2506065209429694E+02  0.1810384136495175E+03  0.1832276225820284E+03  0.0000000000000000E+00 0. -1
   #pdf1pdf2  0.1859732566721007E-04
</event>
<event>
  5  26  0.2401515482509494E+02  0.9222926445779494E+02  0.7546888109483510E-02  0.1177979495849032E+00
   2 -1 0 0 501   0 -0.1611660007981380E+01  0.9017130530544600E+00  0.1052457061796896E+04  0.1052457061796896E+04  0.1846763225585602E+01 0.  9
  -2 -1 0 0   0 502 -0.5306474909405593E+02 -0.4742551150194716E+02 -0.7448089786776417E+01  0.7448089786776417E+01  0.7116914175143910E+02 0.  9
 -13 +1 1 2   0   0  0.2389934777061086E+02 -0.3359332318357654E+02  0.1224959706169710E+03  0.1292476421594245E+03  0.0000000000000000E+00 0.  1
  13 +1 1 2   0   0 -0.7329808092830049E+02 -0.2570136167982676E+02  0.3744921060414375E+03  0.3824624244907207E+03  0.0000000000000000E+00 0. -1
  21 +1 1 2 501 502 -0.5277675944347674E+01  0.1277088641451061E+02  0.5480208953517116E+03  0.5481950849335276E+03  0.0000000000000000E+00 0. -1
   #pdf1pdf2  0.1104660973768410E-06
</event>
<event>
  5   1  0.2401515482509494E+02  0.9417961903428937E+02  0.7546888109483510E-02  0.1174279831942941E+00
   2 -1 0 0 502   0  0.1326844535750667E+02  0.3426836207730773E+01  0.6546480194120278E+03  0.6546480194120278E+03  0.1370382605697238E+02 0.  9
  21 -1 0 0 501 502 -0.1295097996315987E+02  0.1629660383947040E+02 -0.5579733796306891E+01  0.5579733796306891E+01  0.2081603177137299E+02 0.  9
 -13 +1 1 2   0   0 -0.4535774271391238E+02  0.2672625382785719E+01  0.1365733808268280E+03  0.1439331653963324E+03  0.0000000000000000E+00 0. -1
  13 +1 1 2   0   0  0.2402623100809761E+02  0.2631551178415774E+02  0.3848172154791087E+03  0.3864635238492908E+03  0.0000000000000000E+00 0.  1
   2 +1 1 2 501   0  0.2164897710016158E+02 -0.9264697119742287E+01  0.1276776893097842E+03  0.1298310639627115E+03  0.0000000000000000E+00 0. -1
   #pdf1pdf2  0.1746838210266652E-05
</event>
<event>
  5   2  0.2401515482509494E+02  0.9549925764884696E+02  0.7546888109483510E-02  0.1171833039273660E+00
   1 -1 0 0 502   0 -0.2805149538717918E+01  0.6792610475703023E+00  0.5445272524508700E+03  0.5445272524508700E+03  0.2886218894213613E+01 0.  9
  21 -1 0 0 501 502  0.4149400594443561E+00 -0.3386686012127568E+00 -0.7627637288289273E+01  0.7627637288289273E+01  0.5356040275978992E+00 0.  9
 -13 +1 1 2   0   0 -0.3262490933128743E+02 -0.1647050431182413E+02  0.1369781113576504E+03  0.1417697612760543E+03  0.0000000000000000E+00 0.  1
  13 +1 1 2   0   0  0.5560472567528153E+02  0.2950685124413437E+02  0.2500159171765021E+03  0.2578187321149771E+03  0.0000000000000000E+00 0. -1
   1 +1 1 2 501   0 -0.2537002582326766E+02 -0.1269575448595269E+02  0.1499055866284282E+03  0.1525663963481279E+03  0.0000000000000000E+00 0. -1
   #pdf1pdf2  0.1146295820186993E-02
</event>
<event>
  5   1  0.2401515482509494E+02  0.9350475967425093E+02  0.7546888109483510E-02  0.1175548542447667E+00
   2 -1 0 0 502   0 -0.9896650629633290E+00  0.1645110511766990E-01  0.1370794102419042E+04  0.1370794102419042E+04  0.9898017860712328E+00 0.  9
  21 -1 0 0 501 502  0.6667254603928468E+01 -0.1060768860201420E+02 -0.2290037449637336E+01  0.2290037449637336E+01  0.1252898006347314E+02 0.  9
 -13 +1 1 2   0   0 -0.7794764194646560E+01 -0.3870283295756239E+02  0.5020431938574904E+03  0.5035931255750229E+03  0.0000000000000000E+00 0.  1
  13 +1 1 2   0   0  0.2333548366935215E+02  0.4629320513664276E+02  0.6180321227133422E+03  0.6202026365192796E+03  0.0000000000000000E+00 0. -1
   2 +1 1 2 501   0 -0.9863129933740455E+01 -0.1818160967597691E+02  0.2484287483985725E+03  0.2492883777743773E+03  0.0000000000000000E+00 0. -1
   #pdf1pdf2  0.1636610587010966E-02
</event>
<event>
  5   1  0.2401515482509494E+02  0.9344014484343283E+02  0.7546888109483510E-02  0.1175670644878109E+00
   2 -1 0 0 502   0 -0.3916610650028642E+01  0.3125061199247568E+01  0.8140721880880662E+03  0.8140721880880662E+03  0.5010573468472489E+01 0.  9
  21 -1 0 0 501 502 -0.1609031315448547E+01 -0.5900740230844637E+00 -0.1821812356273554E+01  0.1821812356273554E+01  0.1713817121752833E+01 0.  9
 -13 +1 1 2   0   0 -0.2825357317703646E+02 -0.3818830911746425E+01  0.1678834757611081E+03  0.1702871378009309E+03  0.0000000000000000E+00 0. -1
  13 +1 1 2   0   0  0.1371092998208459E+02 -0.1193460825088085E+02  0.3902881401731235E+03  0.3907112192334273E+03  0.0000000000000000E+00 0.  1
   2 +1 1 2 501   0  0.9017001229474683E+01  0.1828842633879037E+02  0.2540787597975611E+03  0.2548956434099815E+03  0.0000000000000000E+00 0.  1
   #pdf1pdf2  0.7030764957790463E-03
</event>
<event>
  5   2  0.2401515482509494E+02  0.9338063324563340E+02  0.7546888109483510E-02  0.1175783201610945E+00
   1 -1 0 0 502   0 -0.5127830771945290E+00  0.1054199218569573E+01  0.4420636874766307E+03  0.4420636874766307E+03  0.1172297947063710E+01 0.  9
  21 -1 0 0 501 502 -0.2407722960610711E+02  0.2135691499643948E+01 -0.8372322046285912E+01  0.8372322046285912E+01  0.2417176376863823E+02 0.  9
 -13 +1 1 2   0   0  0.2564721816512549E+02  0.4186234846017287E+02  0.1652067974631958E+03  0.1723470972957070E+03  0.0000000000000000E+00 0.  1
  13 +1 1 2   0   0 -0.3418912683374548E+02 -0.2654343454759390E+02  0.1080315654123533E+03  0.1163798497880106E+03  0.0000000000000000E+00 0. -1
   1 +1 1 2 501   0 -0.1604810401468164E+02 -0.1212902319436545E+02  0.1604530025547957E+03  0.1617090624391990E+03  0.0000000000000000E+00 0. -1
   #pdf1pdf2  0.1672402078726079E-03
</event>
<event>
  5  26  0.2401515482509494E+02  0.9414187071745614E+02  0.7546888109483510E-02  0.1174350482587761E+00
   2 -1 0 0 501   0 -0.8924965167011182E+01  0.4089022473165099E+01  0.7598682061721493E+03  0.7598682061721493E+03  0.9817082459591147E+01 0.  9
  -2 -1 0 0   0 502 -0.6877591661681220E+00 -0.6383853920121268E+01 -0.4672325131156836E+01  0.4672325131156836E+01  0.6420794619367292E+01 0.  9
 -13 +1 1 2   0   0 -0.2082482619605014E+02  0.3325548150613311E+02  0.5357842459240642E+03  0.5372190974050704E+03  0.0000000000000000E+00 0. -1
  13 +1 1 2   0   0  0.2820941065153562E+02 -0.1947251780310038E+02  0.1021273573224291E+03  0.1077262591597896E+03  0.0000000000000000E+00 0.  1
  21 +1 1 2 501 502 -0.1699730878866479E+02 -0.1607779514998889E+02  0.1172842777944991E+03  0.1195951747384461E+03  0.0000000000000000E+00 0.  1
   #pdf1pdf2  0.2139868832895363E-05
</event>
<event>
  5  26  0.2401515482509494E+02  0.9323574148794361E+02  0.7546888109483510E-02  0.1176057634574856E+00
   2 -1 0 0 501   0 -0.1600094739000473E+01 -0.7729765393685027E+01  0.3636655548067883E+03  0.3636655548067883E+03  0.7893641505362885E+01 0.  9
  -2 -1 0 0   0 502  0.1819154475541054E+02 -0.1178536285114599E+02 -0.7923032552993067E+01  0.7923032552993067E+01  0.2167549487604093E+02 0.  9
 -13 +1 1 2   0   0  0.4636400982148895E+02  0.2153168684574053E+02  0.1228068420186836E+03  0.1330216350514159E+03  0.0000000000000000E+00 0. -1
  13 +1 1 2   0   0 -0.1945935877234270E+02 -0.2457703804214066E+02  0.1627101577318776E+03  0.1657024226494232E+03  0.0000000000000000E+00 0.  1
  21 +1 1 2 501 502 -0.1031320103273618E+02 -0.1646977704843088E+02  0.7022552250323400E+02  0.7286452965894226E+02  0.0000000000000000E+00 0.  1
   #pdf1pdf2  0.3172277524092142E-06
</event>
<event>
  5  26  0.2401515482509494E+02  0.9348826494579839E+02  0.7546888109483510E-02  0.1175579701974643E+00
   2 -1 0 0 501   0  0.5729219443677682E+00 -0.5372090208736987E+00  0.4832453423127107E+03  0.4832453423127107E+03  0.7853872207046803E+00 0.  9
  -2 -1 0 0   0 502  0.1166162062480148E+00  0.1910966364698137E+01 -0.7585577619227934E+01  0.7585577619227934E+01  0.1914521294362456E+01 0.  9
 -13 +1 1 2   0   0 -0.1239698385830469E+02 -0.3494224408990758E+02  0.8740169975255655E+02  0.9494052217287302E+02  0.0000000000000000E+00 0.  1
  13 +1 1 2   0   0  0.6838494578364056E+00  0.5277630449674955E+02  0.2137763381625044E+03  0.2201956600947985E+03  0.0000000000000000E+00 0. -1
  21 +1 1 2 501 502  0.1240267255108406E+02 -0.1646030306301754E+02  0.1744817267784218E+03  0.1756947376642671E+03  0.0000000000000000E+00 0.  1
   #pdf1pdf2  0.2350854016339536E-02
</event>
<event>
  5   1  0.2401515482509494E+02  0.9611881477697344E+02  0.7546888109483510E-02  0.1170699529592963E+00
   2 -1 0 0 502   0  0.2235732452712965E+01 -0.6916205620934593E+00  0.6165921178723477E+03  0.6165921178723477E+03  0.2340264643587217E+01 0.  9
  21 -1 0 0 501 502 -0.3417990169908524E+01 -0.1234466238437525E+02 -0.8087383940104342E+01  0.8087383940104342E+01  0.1280911184219267E+02 0.  9
 -13 +1 1 2   0   0 -0.4885112468844338E+02 -0.2547570744351601E+02  0.1324512810261911E+03  0.1434530790835544E+03  0.0000000000000000E+00 0.  1
  13 +1 1 2   0   0  0.3542198032026711E+02 -0.1537338733937369E+02  0.2184448981582104E+03  0.2218315380180345E+03  0.0000000000000000E+00 0. -1
   2 +1 1 2 501   0  0.1224688665098071E+02  0.2781281183642100E+02  0.2576085547478418E+03  0.2593948847108630E+03  0.0000000000000000E+00 0. -1
   #pdf1pdf2  0.3601219822763384E-03
</event>
<event>
  5  26  0.2401515482509494E+02  0.9459153783981102E+02  0.7546888109483510E-02  0.1173511278263904E+00
   2 -1 0 0 501   0  0.3164248572031638E+00 -0.7202906170940498E+00  0.5903548195693744E+03  0.5903548195693744E+03  0.7867294727730555E+00 0.  9
  -2 -1 0 0   0 502  0.5386407008040600E+00  0.3561118030798656E+01 -0.6288076169755908E+01  0.6288076169755908E+01  0.3601623999509387E+01 0.  9
 -13 +1 1 2   0   0  0.3587011763465465E+02  0.4066073612157193E+02  0.1788685497448126E+03  0.1869061767007302E+03  0.0000000000000000E+00 0.  1
  13 +1 1 2   0   0 -0.2563470557297683E+02 -0.1449009278207237E+02  0.3055238026207619E+03  0.3069395622699957E+03  0.0000000000000000E+00 0. -1
  21 +1 1 2 501 502 -0.9380346503670598E+01 -0.2332981592579495E+02  0.9967439103404399E+02  0.1027971567684044E+03  0.0000000000000000E+00 0. -1
   #pdf1pdf2  0.1063673642264134E-02
</event>
<event>
  5   2  0.2401515482509494E+02  0.9213906160760226E+02  0.7546888109483510E-02  0.1178153077531092E+00
   1 -1 0 0 502   0 -0.3577220714453674E+00  0.6578930284722375E+00  0.1500162951279444E+04  0.1500162951279444E+04  0.7488580087783911E+00 0.  9
  21 -1 0 0 501 502 -0.6651958606097256E+01 -0.3221704879182283E+01 -0.1818700041408702E+01  0.1818700041408702E+01  0.7391071344925462E+01 0.  9
 -13 +1 1 2   0   0  0.1247688445323302E+02 -0.2749869781436752E+02  0.1278636844779513E+04  0.1278993366618785E+04  0.0000000000000000E+00 0. -1
  13 +1 1 2   0   0 -0.1576424553827261E+02  0.1226747930164520E+02  0.7286018161085872E+02  0.7554871640322260E+02  0.0000000000000000E+00 0.  1
   1 +1 1 2 501   0 -0.3722319592503036E+01  0.1266740666201227E+02  0.1468472248476628E+03  0.1474395682988443E+03  0.0000000000000000E+00 0. -1
   #pdf1pdf2  0.1647651120470766E-02
</event>
<event>
  5   1  0.2401515482509494E+02  0.1119588936470125E+03  0.7546888109483510E-02  0.1144606213217544E+00
   2 -1 0 0 502   0 -0.7488861327233751E-01 -0.1004938739621396E+01  0.1640757690180233E+04  0.1640757690180233E+04  0.1007725247669073E+01 0.  9
  21 -1 0 0 501 502  0.1368354147021157E+02 -0.4990525697427219E+02 -0.5642944480464125E+01  0.5642944480464125E+01  0.5174721230013403E+02 0.  9
 -13 +1 1 2   0   0  0.2798135909029834E+02  0.1035542537318308E+02  0.7784638210252410E+03  0.7790353727119316E+03  0.0000000000000000E+00 0.  1
  13 +1 1 2   0   0 -0.5693117222358781E+02 -0.1219136082793871E+02  0.5921237831509366E+03  0.5949792956251218E+03  0.0000000000000000E+00 0. -1
   2 +1 1 2 501   0  0.4255846599022870E+02 -0.4907426025913796E+02  0.2645271415235916E+03  0.2723859663236440E+03  0.0000000000000000E+00 0.  1
   #pdf1pdf2  0.2794491891106424E-04
</event>
<event>
  5  26  0.2401515482509494E+02  0.9223733160585132E+02  0.7546888109483510E-02  0.1177963982673949E+00
   2 -1 0 0 501   0  0.1023426507872460E+01  0.1409599772517472E+01  0.1055315440859340E+04  0.1055315440859340E+04  0.1741945273450726E+01 0.  9
  -2 -1 0 0   0 502  0.1357031177198524E+02  0.2871942586542358E-01 -0.4100601999121393E+01  0.4100601999121393E+01  0.1357034216202020E+02 0.  9
 -13 +1 1 2   0   0  0.3005566541597979E+02  0.3846088069621982E+02  0.4160591806192107E+03  0.4189126688762888E+03  0.0000000000000000E+00 0. -1
  13 +1 1 2   0   0 -0.1709193443695490E+01 -0.3883910726191126E+02  0.1441102280417423E+03  0.1492620361021957E+03  0.0000000000000000E+00 0.  1
  21 +1 1 2 501 502 -0.1375273369242661E+02  0.1816545764074338E+01  0.4910454301992658E+03  0.4912413378799771E+03  0.0000000000000000E+00 0. -1
   #pdf1pdf2  0.2569897664061489E-04
</event>
<event>
  5   2  0.2401515482509494E+02  0.9676952587072746E+02  0.7546888109483510E-02  0.1169519290898961E+00
   1 -1 0 0 502   0  0.1182936669433171E+00 -0.7211475509090282E+00  0.8602488193742228E+03  0.8602488193742228E+03  0.7307853185587309E+00 0.  9
  21 -1 0 0 501 502  0.4411565121903894E+01 -0.5359227155035519E+01 -0.5103984863765445E+01  0.5103984863765445E+01  0.6941413582554278E+01 0.  9
 -13 +1 1 2   0   0  0.1362072595600113E+02  0.3597366075355960E+02  0.5737139564039826E+03  0.5750020280105902E+03  0.0000000000000000E+00 0.  1
  13 +1 1 2   0   0 -0.3249094175815914E+02 -0.1966006691570233E+02  0.1268256257505705E+03  0.1323892702392673E+03  0.0000000000000000E+00 0. -1
   1 +1 1 2 501   0  0.2340007459100523E+02 -0.2239396854380182E+02  0.1546052523559043E+03  0.1579615059881307E+03  0.0000000000000000E+00 0. -1
   #pdf1pdf2  0.2501123691114566E-02
</event>
<event>
  5  10  0.2401515482509494E+02  0.9181324220092046E+02  0.7546888109483510E-02  0.1178781924972991E+00
  21 -1 0 0 501 502 -0.4054952123601662E+00  0.4822024104250177E+00  0.1879872989193443E+04  0.1879872989193443E+04  0.6300361353658324E+00 0.  9
   5 -1 0 0 502   0  0.1539822149995473E+01 -0.3313600329628931E+01 -0.1711104148528543E+01  0.1711104148528543E+01  0.3653901941504949E+01 0.  9
 -13 +1 1 2   0   0  0.3217468889231405E+02 -0.5783608230895402E+01  0.1080026538896753E+04  0.1080521163814382E+04  0.0000000000000000E+00 0.  1
  13 +1 1 2   0   0 -0.3240832611369505E+02 -0.7654971136013089E+01  0.1943030630819530E+03  0.1971359391577655E+03  0.0000000000000000E+00 0. -1
   5 +1 1 2 501   0  0.1367964159016310E+01  0.1060718144770458E+02  0.6038322830662083E+03  0.6039269903698248E+03  0.0000000000000000E+00 0. -1
   #pdf1pdf2  0.1092914339067763E-04
</event>
<event>
  5  27  0.2401515482509494E+02  0.9199532906769677E+02  0.7546888109483510E-02  0.1178430129049602E+00
   1 -1 0 0 501   0  0.1972394575024371E+01  0.1479430087663760E+01  0.1382739569470916E+04  0.1382739569470916E+04  0.2465573714953655E+01 0.  9
  -1 -1 0 0   0 502  0.3054505133259489E+01 -0.2618255461749709E+01 -0.1972907360479754E+01  0.1972907360479754E+01  0.4023091258235482E+01 0.  9
 -13 +1 1 2   0   0 -0.3565620896849442E+02 -0.3101106756248876E+02  0.5222552955865407E+03  0.5243888302753551E+03  0.0000000000000000E+00 0.  1
  13 +1 1 2   0   0  0.2852407300065057E+02  0.2976927393859166E+02  0.7501611437755915E+03  0.7512932676672146E+03  0.0000000000000000E+00 0. -1
  21 +1 1 2 501 502  0.1215903567612770E+02  0.1029682498111490E+00  0.1083502227483038E+03  0.1090303788888256E+03  0.0000000000000000E+00 0. -1
   #pdf1pdf2  0.3498662508823557E-04
</event>
<event>
  5   1  0.2401515482509494E+02  0.9191352940100872E+02  0.7546888109483510E-02  0.1178588055004559E+00
   2 -1 0 0 502   0 -0.9733790474456891E+01  0.6466807578576971E+01  0.1005935490333988E+04  0.1005935490333988E+04  0.1168615750616807E+02 0.  9
  21 -1 0 0 501 502 -0.3318195631821347E+01 -0.1747523793318601E+01 -0.2987688581242455E+01  0.2987688581242455E+01  0.3750234880544537E+01 0.  9
 -13 +1 1 2   0   0 -0.4054696400453150E+02  0.1049456461967267E+02  0.7110231730262899E+03  0.7122556737274296E+03  0.0000000000000000E+00 0.  1
  13 +1 1 2   0   0  0.3778954761609910E+02 -0.1095513624113249E+02  0.2540401716172017E+03  0.2570690057443497E+03  0.0000000000000000E+00 0. -1
   2 +1 1 2 501   0 -0.1029456971784584E+02  0.5179855406718198E+01  0.3788445710925373E+02  0.3959849944345090E+02  0.0000000000000000E+00 0.  1
   #pdf1pdf2  0.2480394625698751E-04
</event>
<event>
  5  26  0.2401515482509494E+02  0.9181698422183503E+02  0.7546888109483510E-02  0.1178774686117184E+00
   2 -1 0 0 501   0  0.2397488249877684E+01 -0.5044825470456673E+01  0.9184413480085663E+03  0.9184413480085663E+03  0.5585536136815333E+01 0.  9
  -2 -1 0 0   0 502 -0.3602034796408884E+01 -0.1656013151476552E+01 -0.3165341807199045E+01  0.3165341807199045E+01  0.3964471494714483E+01 0.  9
 -13 +1 1 2   0   0 -0.1070365290224011E+02  0.3315248069550184E+02  0.1637072337541988E+03  0.1673729773445198E+03  0.0000000000000000E+00 0.  1
  13 +1 1 2   0   0  0.1428689273726024E+02 -0.4945268772985342E+02  0.6677893428381699E+03  0.6697703263328610E+03  0.0000000000000000E+00 0. -1
  21 +1 1 2 501 502 -0.4787786381551327E+01  0.9599368412418361E+01  0.8377942960899850E+02  0.8446338613838448E+02  0.0000000000000000E+00 0.  1
   #pdf1pdf2  0.2219411486768088E-04
</event>
<event>
  5  26  0.2401515482509494E+02  0.9184053115713706E+02  0.7546888109483510E-02  0.1178729143954317E+00
   2 -1 0 0 501   0  0.2174255677626905E+00  0.1468570261963489E+00  0.1676037300809578E+04  0.1676037300809578E+04  0.2623754250309343E+00 0.  9
  -2 -1 0 0   0 502 -0.2274370628863352E+01  0.4516257112344989E+00 -0.1402304383907589E+01  0.1402304383907589E+01  0.2318777164904887E+01 0.  9
 -13 +1 1 2   0   0  0.2427863994478412E+01 -0.1760530154999240E+02  0.7824876524754788E+02  0.8024157543946720E+02  0.0000000000000000E+00 0.  1
  13 +1 1 2   0   0 -0.1514744976633342E+02  0.1581559730595995E+02  0.1505222099797824E+04  0.1505381396215703E+04  0.0000000000000000E+00 0. -1
  21 +1 1 2 501 502  0.1066264071075435E+02  0.2388186981463307E+01  0.9116413138029839E+02  0.9181663353831577E+02  0.0000000000000000E+00 0.  1
   #pdf1pdf2  0.2551357596983433E-02
</event>
<event>
  5  26  0.2401515482509494E+02  0.9268962747605728E+02  0.7546888109483510E-02  0.1177097045601920E+00
   2 -1 0 0 501   0 -0.2998804829052723E+01 -0.1505949874991968E+01  0.1625167052980429E+04  0.1625167052980429E+04  0.3355698947870361E+01 0.  9
  -2 -1 0 0   0 502 -0.1709459046114550E+01  0.2651832217304274E+01 -0.1956663485339876E+01  0.1956663485339876E+01  0.3155069625075772E+01 0.  9
 -13 +1 1 2   0   0 -0.2105749217699639E+02  0.2949929482969045E+02  0.2109886847235017E+03  0.2140790775708511E+03  0.0000000000000000E+00 0.  1
  13 +1 1 2   0   0  0.2604963513121723E+02 -0.1486336690722409E+02  0.1069440296910896E+04  0.1069860762820637E+04  0.0000000000000000E+00 0. -1
  21 +1 1 2 501 502 -0.9700406829388115E+01 -0.1349004558015405E+02  0.3427814078606907E+03  0.3431838760742810E+03  0.0000000000000000E+00 0. -1
   #pdf1pdf2  0.3708161151629950E-04
</event>
<event>
  5   1  0.2401515482509494E+02  0.9622822274933684E+02  0.7546888109483510E-02  0.1170500357443036E+00
   2 -1 0 0 502   0 -0.2452230707785526E+01  0.5871478307834720E+00  0.9591469569442310E+03  0.9591469569442310E+03  0.2521542785558087E+01 0.  9
  21 -1 0 0 501 502  0.1414509402084162E+02 -0.1839779200556652E+02 -0.4589443789908871E+01  0.4589443789908871E+01  0.2320694800137530E+02 0.  9
 -13 +1 1 2   0   0  0.3287140689298341E+02 -0.5101857695442433E+02  0.6114011722822627E+03  0.6144060693496637E+03  0.0000000000000000E+00 0. -1
  13 +1 1 2   0   0  0.9336385681220598E+01  0.2954431074084840E+02  0.1145194337191786E+03  0.1186369887265419E+03  0.0000000000000000E+00 0.  1
   2 +1 1 2 501   0 -0.3051492926114791E+02  0.3663622038792884E+01  0.2286369071528809E+03  0.2306933426579343E+03  0.0000000000000000E+00 0. -1
   #pdf1pdf2  0.9874713444914051E-04
</event>
<event>
  5  27  0.2401515482509494E+02  0.9757107288663698E+02  0.7546888109483510E-02  0.1168079699105565E+00
   1 -1 0 0 501   0  0.4269053944358284E+01  0.1142144701132091E+00  0.6661594887857868E+03  0.6661594887857868E+03  0.4270581520709360E+01 0.  9
  -1 -1 0 0   0 502 -0.3919866347348954E+01 -0.3699416717435898E+01 -0.6610532927994646E+01  0.6610532927994646E+01  0.5389901319163740E+01 0.  9
 -13 +1 1 2   0   0 -0.4177706627816802E+02  0.1284079126255488E+02  0.1991031994602926E+03  0.2038437961341576E+03  0.0000000000000000E+00 0.  1
  13 +1 1 2   0   0  0.2524981956728567E+02 -0.4675769985918875E+02  0.3105814557732525E+03  0.3150947104515328E+03  0.0000000000000000E+00 0. -1
  21 +1 1 2 501 502  0.1687643430789169E+02  0.3033170634931118E+02  0.1498643006242471E+03  0.1538315151280911E+03  0.0000000000000000E+00 0.  1
   #pdf1pdf2  0.1211864897042709E-04
</event>
<event>
  5  26  0.2401515482509494E+02  0.9433649520582142E+02  0.7546888109483510E-02  0.1173986615744766E+00
   2 -1 0 0 501   0 -0.2577520234154503E+01  0.4056386641510865E+00  0.1114784701082918E+04  0.1114784701082918E+04  0.2609243814466207E+01 0.  9
  -2 -1 0 0   0 502  0.1838151753874717E+01  0.1658656724168355E+02 -0.3117832470329569E+01  0.3117832470329569E+01  0.1668810998085651E+02 0.  9
 -13 +1 1 2   0   0 -0.1110484927721668E+02  0.3671542403229412E+02  0.4846164245197085E+03  0.4861321003118464E+03  0.0000000000000000E+00 0. -1
  13 +1 1 2   0   0 -0.1372686852242043E+02 -0.2163246215277784E+02  0.7623233900200074E+02  0.8042238399810805E+02  0.0000000000000000E+00 0.  1
  21 +1 1 2 501 502  0.2409234931935732E+02  0.1909244026318349E+01  0.5508181050908796E+03  0.5513480492432936E+03  0.0000000000000000E+00 0. -1
   #pdf1pdf2  0.7027512204659495E-05
</event>
<event>
  5   1  0.2401515482509494E+02  0.9451852737913401E+02  0.7546888109483510E-02  0.1173647180311398E+00
   2 -1 0 0 502   0 -0.4299000357382971E+01 -0.2152130936922452E+01  0.7912712150442530E+03  0.7912712150442530E+03  0.4807605603877841E+01 0.  9
  21 -1 0 0 501 502 -0.2677878226044273E+01 -0.2096938576202323E+02 -0.5014175675544513E+01  0.5014175675544513E+01  0.2113968237770059E+02 0.  9
 -13 +1 1 2   0   0 -0.5145004451428614E+02 -0.1003381421048602E+02  0.1999956084906047E+03  0.2067511255680603E+03  0.0000000000000000E+00 0.  1
  13 +1 1 2   0   0  0.1960773280373851E+02 -0.1267004942572408E+02  0.4729531965342176E+03  0.4735290059226439E+03  0.0000000000000000E+00 0. -1
   2 +1 1 2 501   0  0.2486543312712039E+02 -0.4176530627355852E+00  0.1133082343438863E+03  0.1160052592290934E+03  0.0000000000000000E+00 0. -1
   #pdf1pdf2  0.2871729520523290E-04
</event>
<event>
  5  26  0.2401515482509494E+02  0.9354967878807165E+02  0.7546888109483510E-02  0.1175463724042847E+00
   2 -1 0 0 501   0 -0.1417331974881207E-01  0.2016207040812033E+00  0.1724737655595205E+04  0.1724737655595205E+04  0.2021182606963117E+00 0.  9
  -2 -1 0 0   0 502  0.2201369485653153E+02  0.7535188625268100E+02 -0.3087651895946419E+01  0.3087651895946419E+01  0.7850165299580294E+02 0.  9
 -13 +1 1 2   0   0 -0.2587737765925469E+01  0.9077250881227981E+02  0.1202378505612679E+04  0.1205802809543169E+04  0.0000000000000000E+00 0.  1
  13 +1 1 2   0   0  0.1257257255768015E+02  0.1866134507129047E+01  0.4355334577826627E+03  0.4357188828669688E+03  0.0000000000000000E+00 0. -1
  21 +1 1 2 501 502  0.1201468674502803E+02 -0.1708513636264665E+02  0.8373804030391670E+02  0.8630361508101362E+02  0.0000000000000000E+00 0.  1
   #pdf1pdf2  0.4249587878241610E-06
</event>
<event>
  5  26  0.2401515482509494E+02  0.9320678410431140E+02  0.7546888109483510E-02  0.1176112548420132E+00
   2 -1 0 0 501   0 -0.3380763829679042E+01  0.3553258137306762E+01  0.1110319352574616E+04  0.1110319352574616E+04  0.4904610836998469E+01 0.  9
  -2 -1 0 0   0 502  0.6075352053968560E+01  0.8005603359757400E+01 -0.2784160638318963E+01  0.2784160638318963E+01  0.1004985511007094E+02 0.  9
 -13 +1 1 2   0   0 -0.4370517902804242E+02 -0.1936366035098396E+02  0.3842149563256702E+03  0.3871772548593191E+03  0.0000000000000000E+00 0.  1
  13 +1 1 2   0   0  0.3809165066554612E+02  0.1351011297942533E+02  0.5631081731971580E+03  0.5645567391543416E+03  0.0000000000000000E+00 0. -1
  21 +1 1 2 501 502  0.8308116586785822E+01  0.1741240886862278E+02  0.1602120624134686E+03  0.1613695191992741E+03  0.0000000000000000E+00 0. -1
   #pdf1pdf2  0.4400460870744944E-05
</event>
<event>
  5   1  0.2401515482509494E+02  0.9303637938499051E+02  0.7546888109483510E-02  0.1176436151589815E+00
   2 -1 0 0 502   0 -0.2359103743468856E+00  0.3514589349288274E+00  0.5083997058466598E+03  0.5083997058466598E+03  0.4232931462542164E+00 0.  9
  21 -1 0 0 501 502 -0.7277995015493318E+02  0.5081001943913057E+02 -0.6128937681487112E+01  0.6128937681487112E+01  0.8876136107541042E+02 0.  9
 -13 +1 1 2   0   0 -0.5268950162546246E+02 -0.3309552019505489E+01  0.2592786545268235E+03  0.2645988613152924E+03  0.0000000000000000E+00 0. -1
  13 +1 1 2   0   0 -0.1128647949988426E+02  0.3838499140970593E+02  0.1690269904384330E+03  0.1736977710901859E+03  0.0000000000000000E+00 0.  1
   2 +1 1 2 501   0 -0.9039879403933348E+01  0.1608603898385896E+02  0.7396512319991621E+02  0.7623201112266861E+02  0.0000000000000000E+00 0. -1
   #pdf1pdf2  0.1314971581870118E-04
</event>
<event>
  5  26  0.2401515482509494E+02  0.9189169097412739E+02  0.7546888109483510E-02  0.1178630248323139E+00
   2 -1 0 0 501   0  0.1106817095080515E+02  0.7495999309440752E+01  0.8070336593409097E+03  0.8070336593409097E+03  0.1336766299109097E+02 0.  9
  -2 -1 0 0   0 502  0.4577147590526926E+01  0.7039138620947309E+00 -0.3501496780212468E+01  0.3501496780212468E+01  0.4630958301552235E+01 0.  9
 -13 +1 1 2   0   0 -0.2453401428263982E+02 -0.1886044982731525E+02  0.1261326450257305E+03  0.1298733173738793E+03  0.0000000000000000E+00 0.  1
  13 +1 1 2   0   0  0.4799743302782181E+02  0.1883404182550195E+02  0.6206921386703616E+03  0.6228299974438711E+03  0.0000000000000000E+00 0. -1
  21 +1 1 2 501 502 -0.7818100203849916E+01  0.8226321173348790E+01  0.5670737886460518E+02  0.5783184130337192E+02  0.0000000000000000E+00 0.  1
   #pdf1pdf2  0.1489629560579859E-05
</event>
<event>
  5  21  0.2401515482509494E+02  0.9199055552210515E+02  0.7546888109483510E-02  0.1178439340011742E+00
  -2 -1 0 0   0 502  0.6345891506578474E+01 -0.9622419081110996E+00  0.3891770181973919E+03  0.3891770181973919E+03  0.6418430376890452E+01 0.  9
   2 -1 0 0 501   0  0.1521464710581622E+02 -0.1526232275193219E+02 -0.8123408670282121E+01  0.8123408670282121E+01  0.2155049842436756E+02 0.  9
 -13 +1 1 2   0   0 -0.2686603690547896E+02 -0.2413147100360189E+02  0.8510356620220270E+02  0.9244851979419104E+02  0.0000000000000000E+00 0.  1
  13 +1 1 2   0   0  0.5434103788848744E+02  0.1848961019900624E+02  0.1979356680073744E+03  0.2060906178204985E+03  0.0000000000000000E+00 0. -1
  21 +1 1 2 501 502 -0.5914462370613787E+01 -0.1058270385544764E+02  0.9801437531753265E+02  0.9876128925298447E+02  0.0000000000000000E+00 0.  1
   #pdf1pdf2  0.8001909910970655E-07
</event>
<event>
  5   1  0.2401515482509494E+02  0.9362792117315985E+02  0.7546888109483510E-02  0.1175316110352887E+00
   2 -1 0 0 502   0  0.6334886541135297E+01 -0.1495648140389033E+02  0.1423197676321581E+04  0.1423197676321581E+04  0.1624275603073488E+02 0.  9
  21 -1 0 0 501 502  0.4352123669784016E+01  0.5379188174126637E+01 -0.3676519239863154E+01  0.3676519239863154E+01  0.6919295184464827E+01 0.  9
 -13 +1 1 2   0   0  0.2696823890964786E+02 -0.9317855502302065E+01  0.1078691193786447E+03  0.1115789194094204E+03  0.0000000000000000E+00 0.  1
  13 +1 1 2   0   0 -0.5624659209013405E+01 -0.1862618296656992E+02  0.1248830079918886E+04  0.1248981641175454E+04  0.0000000000000000E+00 0. -1
   2 +1 1 2 501   0 -0.1065656948971515E+02  0.1836674523910829E+02  0.6282195778418736E+02  0.6631363497656913E+02  0.0000000000000000E+00 0. -1
   #pdf1pdf2  0.1098800469557495E-05
</event>
<event>
  5  26  0.2401515482509494E+02  0.9407448559452395E+02  0.7546888109483510E-02  0.1174476694484458E+00
   2 -1 0 0 501   0 -0.1971555995862101E+02  0.1289099877643371E+02  0.6907255427539887E+03  0.6907255427539887E+03  0.2355591547649965E+02 0.  9
  -2 -1 0 0   0 502 -0.1801770166641701E+02 -0.4498443969554758E+01 -0.6182950086797522E+01  0.6182950086797522E+01  0.1857077196799395E+02 0.  9
 -13 +1 1 2   0   0 -0.5414936213775233E+02  0.4292739770197703E+01  0.2090481145420816E+03  0.2159900350207373E+03  0.0000000000000000E+00 0.  1
  13 +1 1 2   0   0  0.3779725004783179E+02  0.1290705439934426E+02  0.1734064386967712E+03  0.1779466693870471E+03  0.0000000000000000E+00 0. -1
  21 +1 1 2 501 502 -0.2138114953511749E+02 -0.8807239362663008E+01  0.3020880394283384E+03  0.3029717884330019E+03  0.0000000000000000E+00 0. -1
   #pdf1pdf2  0.1180678811267736E-07
</event>
<event>
  5   1  0.2401515482509494E+02  0.9370528785878322E+02  0.7546888109483510E-02  0.1175170307554411E+00
   2 -1 0 0 502   0  0.2069785863039903E+00 -0.1817383964905664E+00  0.2304286232459698E+04  0.2304286232459698E+04  0.2754432426968588E+00 0.  9
  21 -1 0 0 501 502  0.1461387675240634E+02 -0.1669145743213186E+02 -0.1923390708535412E+01  0.1923390708535412E+01  0.2218490804450612E+02 0.  9
 -13 +1 1 2   0   0  0.2069735376939753E+02 -0.1615021325342251E+01  0.6880279474246686E+02  0.7186663559198335E+02  0.0000000000000000E+00 0.  1
  13 +1 1 2   0   0 -0.7218770063830188E+01 -0.3678934865427080E+02  0.1473188987111165E+04  0.1473665958947705E+04  0.0000000000000000E+00 0. -1
   2 +1 1 2 501   0  0.1342271633142991E+01  0.2153117415099062E+02  0.7603710598975313E+03  0.7606770286285451E+03  0.0000000000000000E+00 0. -1
   #pdf1pdf2  0.2545611158996756E-03
</event>
<event>
  5   1  0.2401515482509494E+02  0.9236632258242850E+02  0.7546888109483510E-02  0.1177716173213588E+00
   2 -1 0 0 502   0  0.3976638753295724E+01 -0.3254304581784209E+01  0.3839326667774096E+03  0.3839326667774096E+03  0.5138497259436368E+01 0.  9
  21 -1 0 0 501 502  0.6762312896912725E+01 -0.2118366158095669E+01 -0.7631335722571796E+01  0.7631335722571796E+01  0.7086349617081927E+01 0.  9
 -13 +1 1 2   0   0 -0.2677643747212766E+02  0.2229705729800383E+02  0.1325391085373562E+03  0.1370428825577100E+03  0.0000000000000000E+00 0.  1
  13 +1 1 2   0   0  0.3816528888223356E+02 -0.4236079193616303E+02  0.2117603596905068E+03  0.2193022478342984E+03  0.0000000000000000E+00 0. -1
   2 +1 1 2 501   0 -0.6498997598974565E+00  0.1469106389827932E+02  0.3200186282697484E+02  0.3521887210797295E+02  0.0000000000000000E+00 0. -1
   #pdf1pdf2  0.1931943237795355E-03
</event>
<event>
  5   1  0.2401515482509494E+02  0.9314495513591282E+02  0.7546888109483510E-02  0.1176229873686926E+00
   2 -1 0 0 502   0 -0.5457775024979317E+01  0.4543091356538041E+01  0.1244808650992111E+04  0.1244808650992111E+04  0.7101196187765738E+01 0.  9
  21 -1 0 0 501 502  0.1381416562483824E+02 -0.1744638980563943E+02 -0.2376656103236274E+01  0.2376656103236274E+01  0.2225326243859048E+02 0.  9
 -13 +1 1 2   0   0  0.2728871562778257E+02 -0.3571324350531786E+01  0.9711904388248234E+03  0.9715803089930261E+03  0.0000000000000000E+00 0. -1
  13 +1 1 2   0   0 -0.1884919432998895E+02  0.9659811950095595E+01  0.6229716821632053E+02  0.6579924970372713E+02  0.0000000000000000E+00 0.  1
   2 +1 1 2 501   0 -0.8313069793469374E-01 -0.1899178604866520E+02  0.2089443878477312E+03  0.2098057483985944E+03  0.0000000000000000E+00 0. -1
   #pdf1pdf2  0.5867891837416150E-05
</event>
<event>
  5   2  0.2401515482509494E+02  0.9505298592714860E+02  0.7546888109483510E-02  0.1172655504545988E+00
   1 -1 0 0 502   0  0.1044657101034769E+01 -0.4528202192241364E+01  0.8715964114307270E+03  0.8715964114307270E+03  0.4647141438837628E+01 0.  9
  21 -1 0 0 501 502  0.4393128238835415E+01  0.4962374849981802E+01 -0.3395118714617056E+01  0.3395118714617056E+01  0.6627574207399346E+01 0.  9
 -13 +1 1 2   0   0 -0.3668945082099574E+02  0.2453162457936715E+02  0.5098261036502803E+03  0.5117329111648728E+03  0.0000000000000000E+00 0.  1
  13 +1 1 2   0   0  0.1616718488854657E+02 -0.1732559454235021E+02  0.2663582247973962E+03  0.2674102803010509E+03  0.0000000000000000E+00 0. -1
   1 +1 1 2 501   0  0.2596005127231935E+02 -0.6771857379276510E+01  0.9201696426843341E+02  0.9584833867942032E+02  0.0000000000000000E+00 0.  1
   #pdf1pdf2  0.9567032357260267E-04
</event>
<event>
  5  26  0.2401515482509494E+02  0.9229336891406865E+02  0.7546888109483510E-02  0.1177856271580574E+00
   2 -1 0 0 501   0  0.6757520386101516E+01 -0.2537433205201450E+01  0.1020509945477130E+04  0.1020509945477130E+04  0.7218216472192870E+01 0.  9
  -2 -1 0 0   0 502 -0.5424529506849578E+00  0.6026097222458007E+01 -0.2362636409054558E+01  0.2362636409054558E+01  0.6050463035026569E+01 0.  9
 -13 +1 1 2   0   0  0.1584107189228845E+01  0.1999185675875740E+02  0.8467584544273535E+03  0.8469959054661658E+03  0.0000000000000000E+00 0.  1
  13 +1 1 2   0   0 -0.7696269369646345E+01 -0.2363183470662142E+02  0.9672573386068598E+02  0.9986773134851661E+02  0.0000000000000000E+00 0. -1
  21 +1 1 2 501 502  0.1232722961583406E+02  0.7128641965120577E+01  0.7466312078003580E+02  0.7600894507150187E+02  0.0000000000000000E+00 0. -1
   #pdf1pdf2  0.4897028182623993E-05
</event>
<event>
  5  26  0.2401515482509494E+02  0.9464491513844813E+02  0.7546888109483510E-02  0.1173412008429667E+00
   2 -1 0 0 501   0 -0.9326347730168861E+00  0.6170568415233116E+00  0.1238144898392582E+04  0.1238144898392582E+04  0.1118287425267308E+01 0.  9
  -2 -1 0 0   0 502  0.4934149860565305E+00 -0.7052632241154494E+00 -0.3264615416366575E+01  0.3264615416366575E+01  0.8607290884795777E+00 0.  9
 -13 +1 1 2   0   0 -0.1922663097408311E+02  0.5496900643906272E+01  0.4481542740401300E+02  0.4907445148656181E+02  0.0000000000000000E+00 0.  1
  13 +1 1 2   0   0  0.3354286133983349E+01  0.1451938981918784E+02  0.1042705643088082E+04  0.1042812122121680E+04  0.0000000000000000E+00 0. -1
  21 +1 1 2 501 502  0.1543312505313941E+02 -0.2010449684568625E+02  0.1473592124841200E+03  0.1495229402007066E+03  0.0000000000000000E+00 0. -1
   #pdf1pdf2  0.2664345203324288E-02
</event>
<event>
  5   1  0.2401515482509494E+02  0.9739240759344003E+02  0.7546888109483510E-02  0.1168399238158942E+00
   2 -1 0 0 502   0  0.2180687461410626E+00  0.1167720912541932E+01  0.7637486562403498E+03  0.7637486562403498E+03  0.1187908290917820E+01 0.  9
  21 -1 0 0 501 502 -0.2255724668384600E+01 -0.2425325342487180E+02 -0.6599563283629517E+01  0.6599563283629517E+01  0.2435792674819872E+02 0.  9
 -13 +1 1 2   0   0  0.1495031113816491E+02  0.2026822356878855E+02  0.7932758408432741E+02  0.8322967191103405E+02  0.0000000000000000E+00 0.  1
  13 +1 1 2   0   0 -0.4319152158474940E+02 -0.6533936428049844E+02  0.4569352001195210E+03  0.4635995224001555E+03  0.0000000000000000E+00 0. -1
   2 +1 1 2 501   0  0.2620355452434096E+02  0.2198560819938001E+02  0.2208863087528717E+03  0.2235190252127897E+03  0.0000000000000000E+00 0. -1
   #pdf1pdf2  0.3231844210847289E-03
</event>
<event>
  5   1  0.2401515482509494E+02  0.9699712192143610E+02  0.7546888109483510E-02  0.1169108938867461E+00
   2 -1 0 0 502   0 -0.1709207880681039E+01 -0.7740479223410442E+01  0.1388014082654058E+04  0.1388014082654058E+04  0.7926942045166654E+01 0.  9
  21 -1 0 0 501 502 -0.1218902982246040E+01 -0.7887858196165526E+00 -0.3445902546583464E+01  0.3445902546583464E+01  0.1451863474764913E+01 0.  9
 -13 +1 1 2   0   0 -0.1909115546132750E+02  0.2206526932889054E+02  0.1839586805522413E+03  0.1862582735824818E+03  0.0000000000000000E+00 0.  1
  13 +1 1 2   0   0  0.4892502966204262E+02 -0.2614412130214237E+02  0.1025435200001762E+04  0.1026934527128553E+04  0.0000000000000000E+00 0. -1
   2 +1 1 2 501   0 -0.3276198506364220E+02 -0.4450413069775162E+01  0.1751742995534719E+03  0.1782671844896066E+03  0.0000000000000000E+00 0. -1
   #pdf1pdf2  0.5080380749107710E-04
</event>
<event>
  5  27  0.2401515482509494E+02  0.1306807680156710E+03  0.7546888109483510E-02  0.1119332337344107E+00
   1 -1 0 0 501   0  0.2865779492693875E+00 -0.5295319118236771E-01  0.1143232927409832E+04  0.1143232927409832E+04  0.2914291705781081E+00 0.  9
  -1 -1 0 0   0 502  0.8431347493201599E+01  0.2404624191362241E+02 -0.1026415583513215E+02  0.1026415583513215E+02  0.2548154961378071E+02 0.  9
 -13 +1 1 2   0   0  0.3692114935396939E+02  0.3132858594302128E+00  0.1308498784263761E+03  0.1359594060808050E+03  0.0000000000000000E+00 0.  1
  13 +1 1 2   0   0 -0.1017917860384591E+02 -0.6817482336116470E+02  0.6327025597596530E+03  0.6364463460055312E+03  0.0000000000000000E+00 0. -1
  21 +1 1 2 501 502 -0.1802404530765250E+02  0.9185482622417453E+02  0.3694163333886704E+03  0.3810913311586277E+03  0.0000000000000000E+00 0.  1
   #pdf1pdf2  0.5869464802341843E-05
</event>
<event>
  5   1  0.2401515482509494E+02  0.9173829396819464E+02  0.7546888109483510E-02  0.1178926992015039E+00
   2 -1 0 0 502   0  0.3548823737189980E+01  0.2997770436501417E+01  0.6170027511428339E+03  0.6170027511428339E+03  0.4645511544233310E+01 0.  9
  21 -1 0 0 501 502 -0.4603191110761838E+01  0.5154855201978036E+01 -0.4117706716614013E+01  0.4117706716614013E+01  0.6910998520876475E+01 0.  9
 -13 +1 1 2   0   0 -0.1100415933210571E+02 -0.2168947957456734E+02  0.4411757422031873E+03  0.4418456297796270E+03  0.0000000000000000E+00 0. -1
  13 +1 1 2   0   0  0.1486862441136146E+02  0.3858463621132800E+02  0.1324799604942054E+03  0.1387832485424407E+03  0.0000000000000000E+00 0.  1
   2 +1 1 2 501   0 -0.4918832452827601E+01 -0.8742530998281207E+01  0.3922934172882708E+02  0.4049157953738025E+02  0.0000000000000000E+00 0. -1
   #pdf1pdf2  0.2868295527058813E-03
</event>
<event>
  5  27  0.2401515482509494E+02  0.9178615713519812E+02  0.7546888109483510E-02  0.1178834331941163E+00
   1 -1 0 0 501   0  0.7839281871317699E+01 -0.1484874416863650E+00  0.4307019449912095E+03  0.4307019449912095E+03  0.7840688029650771E+01 0.  9
  -1 -1 0 0   0 502  0.3392974549454648E+01  0.5262360836928302E-01 -0.5713000110439491E+01  0.5713000110439491E+01  0.3393382609934338E+01 0.  9
 -13 +1 1 2   0   0  0.3693871373972776E+02 -0.7859159471977341E+01  0.8182441250998696E+02  0.9011919575182655E+02  0.0000000000000000E+00 0.  1
  13 +1 1 2   0   0 -0.3505140432396911E+02  0.3064062948021228E+01  0.2886732059179153E+03  0.2908095755675163E+03  0.0000000000000000E+00 0. -1
  21 +1 1 2 501 502  0.9344947005013697E+01  0.4699232690639031E+01  0.5449132645286775E+02  0.5548617378230626E+02  0.0000000000000000E+00 0. -1
   #pdf1pdf2  0.8342643135810266E-05
</event>
<event>
  5   1  0.2401515482509494E+02  0.1011695968969669E+03  0.7546888109483510E-02  0.1161804150052104E+00
   2 -1 0 0 502   0  0.1640541241806775E+01  0.1296943369825885E+01  0.9713077198006146E+03  0.9713077198006146E+03  0.2091276564829299E+01 0.  9
  21 -1 0 0 501 502  0.1085349919959172E+02 -0.5142089689454166E+01 -0.6388274211561670E+01  0.6388274211561670E+01  0.1200997632178886E+02 0.  9
 -13 +1 1 2   0   0  0.3087173022035436E+02  0.3566566875887417E+01  0.1009043054307319E+03  0.1055815465909501E+03  0.0000000000000000E+00 0.  1
  13 +1 1 2   0   0 -0.5008016971476035E+02 -0.3765989137164223E+02  0.6831298285348734E+03  0.6859975608199118E+03  0.0000000000000000E+00 0. -1
   2 +1 1 2 501   0  0.3170247993580449E+02  0.3024817817612653E+02  0.1808853116234476E+03  0.1861168866013144E+03  0.0000000000000000E+00 0. -1
   #pdf1pdf2  0.4363251879924368E-03
</event>
<event>
  5  27  0.2401515482509494E+02  0.9274056157900161E+02  0.7546888109483510E-02  0.1176999764772262E+00
   1 -1 0 0 501   0 -0.9014668487640453E+01 -0.8240509753859195E+01  0.4961266855142186E+03  0.4961266855142186E+03  0.1221352729335413E+02 0.  9
  -1 -1 0 0   0 502 -0.3505159361264640E+02  0.2628949989496939E+02 -0.6845229435286603E+01  0.6845229435286603E+01  0.4381497483182786E+02 0.  9
 -13 +1 1 2   0   0 -0.5520349638681317E+02 -0.2945783329573830E+02  0.2180693377526966E+03  0.2268687418392144E+03  0.0000000000000000E+00 0.  1
  13 +1 1 2   0   0  0.1401565392901222E+02  0.3085633866581729E+02  0.2042162953353644E+03  0.2070092932006151E+03  0.0000000000000000E+00 0. -1
  21 +1 1 2 501 502 -0.2878419642485902E+01  0.1665048477103120E+02  0.6699582299087092E+02  0.6909387990967578E+02  0.0000000000000000E+00 0. -1
   #pdf1pdf2  0.5613656021604090E-08
</event>
<event>
  5  26  0.2401515482509494E+02  0.9197536674063527E+02  0.7546888109483510E-02  0.1178468652219649E+00
   2 -1 0 0 501   0  0.4656544686621323E+00 -0.1065400165838763E-01  0.9830546319968164E+03  0.9830546319968164E+03  0.4657763325206098E+00 0.  9
  -2 -1 0 0   0 502 -0.6601800457373603E+01 -0.8631502141127523E+01 -0.2718648801162144E+01  0.2718648801162144E+01  0.1086676577879855E+02 0.  9
 -13 +1 1 2   0   0  0.3130215743152383E+01  0.3754867377860265E+02  0.5790848645672505E+03  0.5803093843149545E+03  0.0000000000000000E+00 0. -1
  13 +1 1 2   0   0  0.2741130175229825E+01 -0.4617068208186869E+02  0.3125358509157518E+03  0.3159397154302947E+03  0.0000000000000000E+00 0.  1
  21 +1 1 2 501 502 -0.1200749190709368E+02 -0.2014783951986843E-01  0.8871526771265201E+02  0.8952418105272939E+02  0.0000000000000000E+00 0.  1
   #pdf1pdf2  0.2488890683051401E-03
</event>
<event>
  5   2  0.2401515482509494E+02  0.1071913857450652E+03  0.7546888109483510E-02  0.1151927977346106E+00
   1 -1 0 0 502   0 -0.2450571412920542E+01 -0.1098884803888063E+02  0.5405572227105777E+03  0.5405572227105777E+03  0.1125877797416017E+02 0.  9
  21 -1 0 0 501 502 -0.7968109083302960E+01  0.2715914276481342E+01 -0.1243220035509239E+02  0.1243220035509239E+02  0.8418251167588807E+01 0.  9
 -13 +1 1 2   0   0 -0.1551778908266302E+02  0.7172626067876327E+02  0.2706487764460348E+03  0.2804215013880135E+03  0.0000000000000000E+00 0. -1
  13 +1 1 2   0   0  0.1624882509204937E+02 -0.2476886599245702E+02  0.1276491428212059E+03  0.1310413091449140E+03  0.0000000000000000E+00 0.  1
   1 +1 1 2 501   0 -0.1114971650560986E+02 -0.5523032844870554E+02  0.1298271030882445E+03  0.1415266125327425E+03  0.0000000000000000E+00 0. -1
   #pdf1pdf2  0.5942004725572035E-05
</event>
<event>
  5   1  0.2401515482509494E+02  0.9495213799098177E+02  0.7546888109483510E-02  0.1172842065491561E+00
   2 -1 0 0 502   0  0.2020027062419898E+01  0.2989265207922561E+01  0.1351374652624487E+04  0.1351374652624487E+04  0.3607799303759160E+01 0.  9
  21 -1 0 0 501 502 -0.5038617884207228E+01 -0.1577316753695442E+01 -0.3129706106988671E+01  0.3129706106988671E+01  0.5279734683157976E+01 0.  9
 -13 +1 1 2   0   0  0.1735302736278777E+02 -0.8769980348663847E+01  0.5377234126562253E+02  0.5717958376165555E+02  0.0000000000000000E+00 0.  1
  13 +1 1 2   0   0 -0.3120185116160113E+02 -0.1397022935081823E+02  0.1146092579033043E+04  0.1146602338449838E+04  0.0000000000000000E+00 0. -1
   2 +1 1 2 501   0  0.1083023297702603E+02  0.2415215815370919E+02  0.1483800262188327E+03  0.1507224365199817E+03  0.0000000000000000E+00 0. -1
   #pdf1pdf2  0.2955950046489220E-03
</event>
<event>
  5   1  0.2401515482509494E+02  0.9189458551259433E+02  0.7546888109483510E-02  0.1178624655124546E+00
   2 -1 0 0 502   0 -0.3826766633642562E+00  0.2572554129949006E+01  0.6541133527877130E+03  0.6541133527877130E+03  0.2600860661435227E+01 0.  9
  21 -1 0 0 501 502  0.9313821777620351E+01  0.3239631018890081E+01 -0.4277475193566796E+01  0.4277475193566796E+01  0.9861160441034812E+01 0.  9
 -13 +1 1 2   0   0  0.2613061749134390E+02 -0.2129080632580461E+02  0.9763395815382007E+02  0.1032884184662721E+03  0.0000000000000000E+00 0.  1
  13 +1 1 2   0   0 -0.2564816565575261E+02  0.1949072445524938E+02  0.5191556997653576E+03  0.5201541668968474E+03  0.0000000000000000E+00 0. -1
   2 +1 1 2 501   0  0.8448693278664809E+01  0.7612267019394320E+01  0.3304621967496848E+02  0.3494824261816019E+02  0.0000000000000000E+00 0. -1
   #pdf1pdf2  0.6305075195426594E-03
</event>
<event>
  5  26  0.2401515482509494E+02  0.9319553262458058E+02  0.7546888109483510E-02  0.1176133891389339E+00
   2 -1 0 0 501   0 -0.7453737082597064E+01 -0.5160918168699788E+01  0.8102828967088030E+03  0.8102828967088030E+03  0.9066050564633873E+01 0.  9
  -2 -1 0 0   0 502 -0.7692480652199705E+01  0.3582698307169672E-01 -0.4111616519976331E+01  0.4111616519976331E+01  0.7692564082097907E+01 0.  9
 -13 +1 1 2   0   0 -0.4272122036007769E+02  0.1537249866977167E+02  0.2350137799968884E+03  0.2393593390131923E+03  0.0000000000000000E+00 0.  1
  13 +1 1 2   0   0  0.2431601083885553E+02 -0.3945803432474902E+02  0.3527312667282951E+03  0.3557633361992717E+03  0.0000000000000000E+00 0. -1
  21 +1 1 2 501 502  0.3258991786425390E+01  0.1896044446934926E+02  0.2184262334636433E+03  0.2192718380163154E+03  0.0000000000000000E+00 0. -1
   #pdf1pdf2  0.1828755672777889E-05
</event>
<event>
  5  26  0.2401515482509494E+02  0.9415424596557735E+02  0.7546888109483510E-02  0.1174327316691501E+00
   2 -1 0 0 501   0  0.6776395016875043E+00  0.1121142758000992E+01  0.4980157864815158E+03  0.4980157864815158E+03  0.1310021518168828E+01 0.  9
  -2 -1 0 0   0 502  0.3017256780445470E+02  0.3072795001180938E+02 -0.3140787740704029E+01  0.3140787740704029E+01  0.4306495976826952E+02 0.  9
 -13 +1 1 2   0   0  0.7390489016826406E+01 -0.1701160285247975E+02  0.1956145143724908E+03  0.1964918629172815E+03  0.0000000000000000E+00 0. -1
  13 +1 1 2   0   0  0.1037066443983550E+02  0.2940790961534895E+02  0.1248482292665784E+03  0.1286835505411174E+03  0.0000000000000000E+00 0.  1
  21 +1 1 2 501 502  0.1308905384948029E+02  0.1945278600694117E+02  0.1744122551017426E+03  0.1759811607638209E+03  0.0000000000000000E+00 0. -1
   #pdf1pdf2  0.3159603587627767E-05
</event>
<event>
  5  26  0.2401515482509494E+02  0.9173962581016572E+02  0.7546888109483510E-02  0.1178924412797275E+00
   2 -1 0 0 501   0  0.3853129405542905E+01  0.2416238288777061E+01  0.6461548200898807E+03  0.6461548200898807E+03  0.4548056033517145E+01 0.  9
  -2 -1 0 0   0 502  0.1017039135214115E+00  0.4310994544222778E+00 -0.6992816933299439E+01  0.6992816933299439E+01  0.4429338840377380E+00 0.  9
 -13 +1 1 2   0   0 -0.5423187080792283E+01  0.4014317664743984E+02  0.1693746014646486E+03  0.1741512021513759E+03  0.0000000000000000E+00 0.  1
  13 +1 1 2   0   0  0.1371764965436183E+02 -0.4635336298550396E+02  0.1243881014069435E+03  0.1334511444077186E+03  0.0000000000000000E+00 0. -1
  21 +1 1 2 501 502 -0.4339629254505235E+01  0.9057524081263468E+01  0.3453993002849891E+03  0.3455452904640856E+03  0.0000000000000000E+00 0. -1
   #pdf1pdf2  0.3098043578541856E-03
</event>
<event>
  5  26  0.2401515482509494E+02  0.9175453986610692E+02  0.7546888109483510E-02  0.1178895533889607E+00
   2 -1 0 0 501   0 -0.1803060378021795E+00 -0.2127694389046809E+01  0.8394822623524374E+03  0.8394822623524374E+03  0.2135320510005276E+01 0.  9
  -2 -1 0 0   0 502 -0.4837849371230045E+01 -0.3342219246490331E+01 -0.3134250672589058E+01  0.3134250672589058E+01  0.5880069389924012E+01 0.  9
 -13 +1 1 2   0   0  0.3259007192938942E+02  0.1315498001934215E+02  0.5744960381384383E+03  0.5755700340744244E+03  0.0000000000000000E+00 0. -1
  13 +1 1 2   0   0 -0.3104594542970877E+02 -0.2640591048763239E+02  0.1795637351902650E+03  0.1841310887161234E+03  0.0000000000000000E+00 0.  1
  21 +1 1 2 501 502 -0.6562281908712878E+01  0.7781016832753106E+01  0.8228823835114508E+02  0.8291539023447862E+02  0.0000000000000000E+00 0. -1
   #pdf1pdf2  0.1312239540556413E-03
</event>
<event>
  5  21  0.2401515482509494E+02  0.9214711021297575E+02  0.7546888109483510E-02  0.1178137580176418E+00
  -2 -1 0 0   0 502  0.7194313001489160E+00 -0.7701230304333135E+00  0.1042484501221127E+04  0.1042484501221127E+04  0.1053883711629395E+01 0.  9
   2 -1 0 0 501   0 -0.1914538944796722E+01  0.8756953379552389E+00 -0.4015575781256251E+01  0.4015575781256251E+01  0.2105303231380193E+01 0.  9
 -13 +1 1 2   0   0  0.2129661294852204E+02 -0.3733992074736465E+02  0.1648274975101230E+03  0.1703405980380139E+03  0.0000000000000000E+00 0.  1
  13 +1 1 2   0   0 -0.3532384931646135E+02  0.3410804286182311E+02  0.5321261873852978E+03  0.5343869498964295E+03  0.0000000000000000E+00 0. -1
  21 +1 1 2 501 502  0.1283212872329150E+02  0.3337450193063468E+01  0.3415152405444504E+03  0.3417725290679403E+03  0.0000000000000000E+00 0.  1
   #pdf1pdf2  0.5835557015049047E-04
</event>
<event>
  5   1  0.2401515482509494E+02  0.9405782037825975E+02  0.7546888109483510E-02  0.1174507926593841E+00
   2 -1 0 0 502   0  0.1405506645014286E+01 -0.1626512087944830E+01  0.8350630255283478E+03  0.8350630255283478E+03  0.2149648925152655E+01 0.  9
  21 -1 0 0 501 502  0.8398866215249063E+01  0.1875726614391798E+02 -0.5728635813390823E+01  0.5728635813390823E+01  0.2055178792454379E+02 0.  9
 -13 +1 1 2   0   0  0.7975717155035218E+01 -0.4041947766347269E+02  0.1370838302063985E+03  0.1431409191768091E+03  0.0000000000000000E+00 0.  1
  13 +1 1 2   0   0  0.2031203106188043E+02  0.4376797535504474E+02  0.6185222757048164E+03  0.6204014988824604E+03  0.0000000000000000E+00 0. -1
   2 +1 1 2 501   0 -0.1848337535665230E+02  0.1378225636440110E+02  0.7372828380374210E+02  0.7724924328246922E+02  0.0000000000000000E+00 0. -1
   #pdf1pdf2  0.1801498889454208E-03
</event>
<event>
  5  26  0.2401515482509494E+02  0.9367104787044202E+02  0.7546888109483510E-02  0.1175234815692745E+00
   2 -1 0 0 501   0  0.5236690320163225E+00 -0.2919385712922264E+00  0.8997005438857537E+03  0.8997005438857537E+03  0.5995476499003716E+00 0.  9
  -2 -1 0 0   0 502  0.8352673005235429E+01  0.1786097835489056E+01 -0.3966173297884499E+01  0.3966173297884499E+01  0.8541504071902521E+01 0.  9
 -13 +1 1 2   0   0 -0.3192870992515707E+02 -0.1055304420030702E+02  0.1950019309705998E+03  0.1978801716737709E+03  0.0000000000000000E+00 0.  1
  13 +1 1 2   0   0  0.5695729898487404E+02  0.2612137505759966E+02  0.4986542160446139E+03  0.5025758523065156E+03  0.0000000000000000E+00 0. -1
  21 +1 1 2 501 502 -0.1615224702246522E+02 -0.1407417159309580E+02  0.2020782235726555E+03  0.2032106932033518E+03  0.0000000000000000E+00 0. -1
   #pdf1pdf2  0.3074112844145948E-03
</event>
<event>
  5   2  0.2401515482509494E+02  0.1039837710701040E+03  0.7546888109483510E-02  0.1157096544051217E+00
   1 -1 0 0 502   0  0.2680819027312855E+00  0.2080924095032947E+01  0.7261619684986964E+03  0.7261619684986964E+03  0.2098121301512549E+01 0.  9
  21 -1 0 0 501 502 -0.1045803831177737E+02 -0.3142901553305965E+01 -0.7518079765559627E+01  0.7518079765559627E+01  0.1092009136886575E+02 0.  9
 -13 +1 1 2   0   0  0.6180282716043836E+01 -0.2132593034428280E+02  0.6274981691557141E+02  0.6656223195203992E+02  0.0000000000000000E+00 0.  1
  13 +1 1 2   0   0  0.2818586767717326E+02  0.4289336236449858E+02  0.5163648995122651E+03  0.5189094267017693E+03  0.0000000000000000E+00 0. -1
   1 +1 1 2 501   0 -0.4455610680226318E+02 -0.2262940947848880E+02  0.1395291723053003E+03  0.1482083896104468E+03  0.0000000000000000E+00 0. -1
   #pdf1pdf2  0.2469685832854706E-03
</event>
<event>
  5  27  0.2401515482509494E+02  0.9173500740507907E+02  0.7546888109483510E-02  0.1178933356915227E+00
   1 -1 0 0 501   0  0.1582398066973385E+01 -0.1861289942925307E+00  0.1652402531373136E+04  0.1652402531373136E+04  0.1593307140785309E+01 0.  9
  -1 -1 0 0   0 502  0.5498137487193739E+02  0.2601304794441103E+02 -0.2521415096987921E+01  0.2521415096987921E+01  0.6082458586925797E+02 0.  9
 -13 +1 1 2   0   0  0.5284776636318512E+01  0.4253488970871104E+02  0.9994925703653596E+03  0.1000411187423542E+04  0.0000000000000000E+00 0. -1
  13 +1 1 2   0   0  0.6097677142946331E+02 -0.1426319633984644E+02  0.5883377862358250E+03  0.5916611835642602E+03  0.0000000000000000E+00 0.  1
  21 +1 1 2 501 502 -0.9697775126871051E+01 -0.2444774418746093E+01  0.6205075967496350E+02  0.6285157548232177E+02  0.0000000000000000E+00 0. -1
   #pdf1pdf2  0.7835051629441813E-07
</event>
<event>
  5   3  0.2401515482509494E+02  0.1136674477907169E+03  0.7546888109483510E-02  0.1142079238738473E+00
   3 -1 0 0 502   0  0.7448693950602736E+01 -0.1493885124300295E+02  0.1265329366037892E+04  0.1265329366037892E+04  0.1669288225652828E+02 0.  9
  21 -1 0 0 501 502 -0.1094270776492887E+01  0.2741980936598382E+02 -0.6384441705995144E+01  0.6384441705995144E+01  0.2744163577848778E+02 0.  9
 -13 +1 1 2   0   0  0.7556298955280401E+02  0.2358540744075149E+02  0.7038809101479279E+03  0.7083179882686721E+03  0.0000000000000000E+00 0. -1
  13 +1 1 2   0   0 -0.3255028691572377E+01 -0.2707729297720569E+02  0.1191431837029261E+03  0.1222246833893448E+03  0.0000000000000000E+00 0.  1
   3 +1 1 2 501   0 -0.6595353768712178E+02  0.1597284365943508E+02  0.4359208304810433E+03  0.4411711360858706E+03  0.0000000000000000E+00 0. -1
   #pdf1pdf2  0.1903588920420858E-08
</event>
<event>
  5  26  0.2401515482509494E+02  0.1092843038025919E+03  0.7546888109483510E-02  0.1148662982560465E+00
   2 -1 0 0 501   0  0.7571922594957865E+00 -0.3883958173647101E+00  0.1482855714230479E+04  0.1482855714230479E+04  0.8509943764718635E+00 0.  9
  -2 -1 0 0   0 502  0.8937738965332384E+01 -0.6912606280717560E+01 -0.4714884652099520E+01  0.4714884652099520E+01  0.1129899568123807E+02 0.  9
 -13 +1 1 2   0   0  0.2554087179003575E+02 -0.1655869607372421E+02  0.2271552628448776E+03  0.2291856016105341E+03  0.0000000000000000E+00 0.  1
  13 +1 1 2   0   0 -0.7337578539044665E+02 -0.8577333155290745E+01  0.7980996644569921E+03  0.8015114789771167E+03  0.0000000000000000E+00 0. -1
  21 +1 1 2 501 502  0.5752984482523908E+02  0.1783502713093269E+02  0.4528859022765100E+03  0.4568735182949279E+03  0.0000000000000000E+00 0.  1
   #pdf1pdf2  0.6295220891262543E-04
</event>
<event>
  5  26  0.2401515482509494E+02  0.9184947840107631E+02  0.7546888109483510E-02  0.1178711843082624E+00
   2 -1 0 0 501   0 -0.3081220692917580E+01 -0.2841326631951509E+01  0.9883383549660450E+03  0.9883383549660450E+03  0.4191307431804591E+01 0.  9
  -2 -1 0 0   0 502 -0.5588697618332717E+01  0.1332355044886407E+01 -0.3974065469621578E+01  0.3974065469621578E+01  0.5745320794767864E+01 0.  9
 -13 +1 1 2   0   0  0.3710165588640803E+02  0.1454499142591911E+02  0.2537701860818105E+03  0.2568801218255126E+03  0.0000000000000000E+00 0.  1
  13 +1 1 2   0   0 -0.4797338365968308E+02 -0.2683315122002115E+02  0.3197082209878695E+03  0.3243991524517043E+03  0.0000000000000000E+00 0. -1
  21 +1 1 2 501 502  0.2201809462024750E+01  0.1077918820703694E+02  0.4108858824267435E+03  0.4110331461584497E+03  0.0000000000000000E+00 0. -1
   #pdf1pdf2  0.2136646055466129E-04
</event>
<event>
  5  27  0.2401515482509494E+02  0.9275577875261210E+02  0.7546888109483510E-02  0.1176970714528693E+00
   1 -1 0 0 501   0 -0.1177750520609351E+02 -0.1344104672178292E+00  0.2768681784465589E+03  0.2768681784465589E+03  0.1177827215907569E+02 0.  9
  -1 -1 0 0   0 502 -0.2340591489367505E+02 -0.2567514509175577E+02 -0.1145105962904089E+02  0.1145105962904089E+02  0.3474262407321401E+02 0.  9
 -13 +1 1 2   0   0  0.3172339920209777E+02  0.1170085921686790E+02  0.7222515922252074E+02  0.7974808955747525E+02  0.0000000000000000E+00 0.  1
  13 +1 1 2   0   0 -0.5490863621371925E+02 -0.2549416430629698E+02  0.1350030168664839E+03  0.1479551462693312E+03  0.0000000000000000E+00 0. -1
  21 +1 1 2 501 502 -0.1199818308814708E+02 -0.1201625046954452E+02  0.5818894272851335E+02  0.6061600224879346E+02  0.0000000000000000E+00 0.  1
   #pdf1pdf2  0.1459327828477122E-07
</event>
<event>
  5   2  0.2401515482509494E+02  0.9578263400849545E+02  0.7546888109483510E-02  0.1171313395824935E+00
   1 -1 0 0 502   0 -0.2691873453609634E+01  0.2415266213761024E+01  0.1472380574863628E+04  0.1472380574863628E+04  0.3616585900208063E+01 0.  9
  21 -1 0 0 501 502 -0.5821195688223835E+01  0.2805503524012539E+01 -0.3143979773014681E+01  0.3143979773014681E+01  0.6461978742137933E+01 0.  9
 -13 +1 1 2   0   0 -0.2153856961303791E+02  0.2080651567634990E+02  0.1303868243937403E+03  0.1337817067130254E+03  0.0000000000000000E+00 0. -1
  13 +1 1 2   0   0  0.1458282594805591E+02  0.1368198194939851E+02  0.1182535918889229E+04  0.1182704973738543E+04  0.0000000000000000E+00 0.  1
   1 +1 1 2 501   0 -0.1557325476851466E+01 -0.2926772788797485E+02  0.1563138518076435E+03  0.1590378741850736E+03  0.0000000000000000E+00 0. -1
   #pdf1pdf2  0.5981876122583073E-04
</event>
<event>
  5   2  0.2401515482509494E+02  0.9769681793510053E+02  0.7546888109483510E-02  0.1167855268506349E+00
   1 -1 0 0 502   0 -0.6856389560274003E+00 -0.3842129901236753E+01  0.1394061999915966E+04  0.1394061999915966E+04  0.3902827559090959E+01 0.  9
  21 -1 0 0 501 502 -0.7638824270408718E+01  0.1306271476551240E+02 -0.6346855480555486E+01  0.6346855480555486E+01  0.1513228843497642E+02 0.  9
 -13 +1 1 2   0   0  0.4130110611579904E+02  0.3678447558303039E+02  0.1335116685887076E+03  0.1445138216906880E+03  0.0000000000000000E+00 0.  1
  13 +1 1 2   0   0 -0.2301783471791538E+02 -0.4729511516202329E+01  0.2560786513410011E+03  0.2571545540466067E+03  0.0000000000000000E+00 0. -1
   1 +1 1 2 501   0 -0.2660773462431977E+02 -0.2283437920255242E+02  0.9981248245057014E+03  0.9987404796592264E+03  0.0000000000000000E+00 0. -1
   #pdf1pdf2  0.1085220400786187E-04
</event>
<event>
  5  27  0.2401515482509494E+02  0.9219367232442659E+02  0.7546888109483510E-02  0.1178047960950093E+00
   1 -1 0 0 501   0 -0.1470319765260221E+01 -0.1832794940579229E+00  0.1072305622244682E+04  0.1072305622244682E+04  0.1481698884745818E+01 0.  9
  -1 -1 0 0   0 502  0.2003873923550674E+01 -0.1574117196957771E+01 -0.2769049263335889E+01  0.2769049263335889E+01  0.2548206359627211E+01 0.  9
 -13 +1 1 2   0   0  0.4972388445265491E+02  0.9959497053307349E+01  0.5852688040268831E+03  0.5874616832046784E+03  0.0000000000000000E+00 0.  1
  13 +1 1 2   0   0 -0.3841412951059327E+02 -0.3454999646018920E+01  0.4278160099900726E+03  0.4295510688759097E+03  0.0000000000000000E+00 0. -1
  21 +1 1 2 501 502 -0.1077620078377119E+02 -0.8261894098304122E+01  0.5645175896439059E+02  0.5806191942743020E+02  0.0000000000000000E+00 0. -1
   #pdf1pdf2  0.3040937420479978E-03
</event>
<event>
  5   2  0.2401515482509494E+02  0.1301179293619045E+03  0.7546888109483510E-02  0.1120022304187121E+00
   1 -1 0 0 502   0  0.3915786504816623E+01 -0.4978301882503208E+01  0.1929218212457094E+04  0.1929218212457094E+04  0.6333788249115925E+01 0.  9
  21 -1 0 0 501 502  0.1439770505232896E+02 -0.2408888965768001E+01 -0.6214801303917086E+01  0.6214801303917086E+01  0.1459783055194359E+02 0.  9
 -13 +1 1 2   0   0 -0.3879108436053095E+02 -0.3348372286374110E+02  0.7981355279993887E+03  0.7997788625473573E+03  0.0000000000000000E+00 0. -1
  13 +1 1 2   0   0 -0.2987707592528647E+02 -0.6300689545323443E+01  0.6594491965649217E+02  0.7267097620847740E+02  0.0000000000000000E+00 0.  1
   1 +1 1 2 501   0  0.8698165184296300E+02  0.3239722156079333E+02  0.1058922963497296E+04  0.1062983175005176E+04  0.0000000000000000E+00 0. -1
   #pdf1pdf2  0.6564946401876441E-06
</event>
<event>
  5  26  0.2401515482509494E+02  0.9234372445240911E+02  0.7546888109483510E-02  0.1177759554597981E+00
   2 -1 0 0 501   0 -0.2089628810124095E+01  0.7923633970559890E+00  0.1188225304217495E+04  0.1188225304217495E+04  0.2234812814777727E+01 0.  9
  -2 -1 0 0   0 502  0.7278464953609951E+01 -0.9468594010138625E+01 -0.2160362682212784E+01  0.2160362682212784E+01  0.1194279383602352E+02 0.  9
 -13 +1 1 2   0   0 -0.2013463396447938E+02 -0.1450394900724005E+01  0.7144464432009876E+03  0.7147315771202456E+03  0.0000000000000000E+00 0. -1
  13 +1 1 2   0   0  0.2629801671955723E+02  0.7304335842179057E+01  0.9738680470209522E+02  0.1011391553037768E+03  0.0000000000000000E+00 0.  1
  21 +1 1 2 501 502 -0.9745466115919887E+00 -0.1453017155453769E+02  0.3742316936321999E+03  0.3745149344756858E+03  0.0000000000000000E+00 0.  1
   #pdf1pdf2  0.2277578420314656E-04
</event>
<event>
  5  26  0.2401515482509494E+02  0.9238400208039761E+02  0.7546888109483510E-02  0.1177682243759016E+00
   2 -1 0 0 501   0 -0.1377733226684374E+01  0.2401177572970288E+00  0.1061683262280549E+04  0.1061683262280549E+04  0.1398501119513135E+01 0.  9
  -2 -1 0 0   0 502  0.1565194090265077E+02  0.2522020970642396E+02 -0.2038956497008358E+01  0.2038956497008358E+01  0.2968235556110858E+02 0.  9
 -13 +1 1 2   0   0 -0.1107597527959242E+02  0.2495466327791569E+02  0.2331124161266838E+03  0.2347057966905131E+03  0.0000000000000000E+00 0.  1
  13 +1 1 2   0   0  0.3393688002316183E+02  0.1257979581586993E+02  0.7597115372932202E+03  0.7605731937064988E+03  0.0000000000000000E+00 0. -1
  21 +1 1 2 501 502 -0.8586697067603012E+01 -0.1207413163006463E+02  0.6682035236363686E+02  0.6844322838054542E+02  0.0000000000000000E+00 0.  1
   #pdf1pdf2  0.8009644486793127E-05
</event>
<event>
  5  26  0.2401515482509494E+02  0.9204173694557342E+02  0.7546888109483510E-02  0.1178340613692958E+00
   2 -1 0 0 501   0 -0.1049039377024207E+01  0.6240125991372139E+01  0.9245230400565429E+03  0.9245230400565429E+03  0.6327689625980834E+01 0.  9
  -2 -1 0 0   0 502  0.1816569733980772E+02 -0.4331883622415316E+01 -0.3131626542659469E+01  0.3131626542659469E+01  0.1867505757848279E+02 0.  9
 -13 +1 1 2   0   0 -0.7555759069091325E+01 -0.3501065417824451E+02  0.4367028860067514E+03  0.4381691979677765E+03  0.0000000000000000E+00 0.  1
  13 +1 1 2   0   0  0.2612938381242886E+02  0.4933947497650561E+02  0.4007723998541550E+03  0.4046426138881484E+03  0.0000000000000000E+00 0. -1
  21 +1 1 2 501 502 -0.1456966780554027E+01 -0.1242057842930427E+02  0.8391612765297705E+02  0.8484285474327744E+02  0.0000000000000000E+00 0.  1
   #pdf1pdf2  0.6872720841410963E-06
</event>
<event>
  5  26  0.2401515482509494E+02  0.9240780637724104E+02  0.7546888109483510E-02  0.1177636573374229E+00
   2 -1 0 0 501   0  0.2773937683595666E+01  0.1971365165242521E+00  0.1032722878481165E+04  0.1032722878481165E+04  0.2780933850097734E+01 0.  9
  -2 -1 0 0   0 502 -0.7704957433257286E+02  0.1403668883833811E+02 -0.4319732497570122E+01  0.4319732497570122E+01  0.7831772173892060E+02 0.  9
 -13 +1 1 2   0   0 -0.2652009595011765E+02 -0.4782897527748906E+01  0.6558469017629656E+02  0.7090517035791680E+02  0.0000000000000000E+00 0.  1
  13 +1 1 2   0   0 -0.4055105453861363E+02  0.3213199029812731E+02  0.9028145825269131E+03  0.9042958715199119E+03  0.0000000000000000E+00 0. -1
  21 +1 1 2 501 502 -0.7204486160245921E+01 -0.1311526741551604E+02  0.6000387328038562E+02  0.6184156910090693E+02  0.0000000000000000E+00 0.  1
   #pdf1pdf2  0.4019601326577695E-07
</event>
<event>
  5   1  0.2401515482509494E+02  0.9319912861460949E+02  0.7546888109483510E-02  0.1176127069777071E+00
   2 -1 0 0 502   0  0.8456780632382312E+00  0.7155910247317651E+00  0.1224865460320561E+04  0.1224865460320561E+04  0.1107809505880421E+01 0.  9
  21 -1 0 0 501 502 -0.3589652254933399E+01  0.2824714585586935E+01 -0.3225288265673050E+01  0.3225288265673050E+01  0.4567780183127906E+01 0.  9
 -13 +1 1 2   0   0  0.2629814423717217E+02 -0.3317852679143041E+02  0.8521760452492015E+03  0.8532270618815005E+03  0.0000000000000000E+00 0. -1
  13 +1 1 2   0   0 -0.1070641648281266E+02  0.4260031090872086E+02  0.2705781872748291E+03  0.2741203554505860E+03  0.0000000000000000E+00 0.  1
   2 +1 1 2 501   0 -0.1833570194605468E+02 -0.5881478506971751E+01  0.9888593953085774E+02  0.1007433312541479E+03  0.0000000000000000E+00 0.  1
   #pdf1pdf2  0.5513720100141368E-02
</event>
<event>
  5  26  0.2401515482509494E+02  0.9214554022875981E+02  0.7546888109483510E-02  0.1178140602996094E+00
   2 -1 0 0 501   0 -0.1888432658567886E+01 -0.1101337223080614E+01  0.8560060981629097E+03  0.8560060981629097E+03  0.2186120212817376E+01 0.  9
  -2 -1 0 0   0 502  0.4804043938322150E+01 -0.6866769229644603E+01 -0.3259606741324109E+01  0.3259606741324109E+01  0.8380415133782080E+01 0.  9
 -13 +1 1 2   0   0 -0.2464930452465402E+02  0.3960814810286857E+01  0.6986735838081091E+02  0.7419382746983192E+02  0.0000000000000000E+00 0.  1
  13 +1 1 2   0   0  0.4001107466788471E+02 -0.7389549681493234E+01  0.6960181115360276E+03  0.6972063562007681E+03  0.0000000000000000E+00 0. -1
  21 +1 1 2 501 502 -0.1244615886347642E+02 -0.4539371581518840E+01  0.8686102150474699E+02  0.8786552123363357E+02  0.0000000000000000E+00 0. -1
   #pdf1pdf2  0.6111173269840190E-04
</event>
<event>
  5   1  0.2401515482509494E+02  0.9306927185669892E+02  0.7546888109483510E-02  0.1176373627478731E+00
   2 -1 0 0 502   0 -0.1430040584770554E+01  0.1014813420965334E+01  0.1240452130818627E+04  0.1240452130818627E+04  0.1753528543669099E+01 0.  9
  21 -1 0 0 501 502  0.2926524868947087E+01 -0.1197448023028066E+01 -0.2452973837416182E+01  0.2452973837416182E+01  0.3162029344648716E+01 0.  9
 -13 +1 1 2   0   0 -0.3484114037247846E+02 -0.3793329006061096E+02  0.7657814112841770E+03  0.7675115695712104E+03  0.0000000000000000E+00 0. -1
  13 +1 1 2   0   0  0.1929570659223305E+02  0.3025568558658340E+02  0.2842882984170990E+03  0.2865441805727299E+03  0.0000000000000000E+00 0.  1
   2 +1 1 2 501   0  0.1704191806442195E+02  0.7494969871964837E+01  0.1879294472799352E+03  0.1888493545121033E+03  0.0000000000000000E+00 0. -1
   #pdf1pdf2  0.3512840837947379E-02
</event>
<event>
  5  27  0.2401515482509494E+02  0.9193596487535891E+02  0.7546888109483510E-02  0.1178544721810991E+00
   1 -1 0 0 501   0 -0.7531730135347274E+00 -0.6410406231932841E+00  0.4681399778641210E+03  0.4681399778641210E+03  0.9890412877635679E+00 0.  9
  -1 -1 0 0   0 502 -0.7995791015625795E+01  0.7758814787889347E+01 -0.5833064467589252E+01  0.5833064467589252E+01  0.1114144877824839E+02 0.  9
 -13 +1 1 2   0   0  0.1782108576209156E+02 -0.1197583668185098E+02  0.3044922261594160E+03  0.3052483047512093E+03  0.0000000000000000E+00 0. -1
  13 +1 1 2   0   0 -0.3586891225343211E+02  0.2619748128685535E+02  0.9554103034663524E+02  0.1053611663361612E+03  0.0000000000000000E+00 0.  1
  21 +1 1 2 501 502  0.9298862462180026E+01 -0.7103870440308308E+01  0.6227365689048054E+02  0.6336357124433977E+02  0.0000000000000000E+00 0.  1
   #pdf1pdf2  0.5640801261852803E-04
</event>
<event>
  5  27  0.2401515482509494E+02  0.9201690091666178E+02  0.7546888109483510E-02  0.1178388512132056E+00
   1 -1 0 0 501   0 -0.1936187806944635E+01  0.1861555357844111E+01  0.6698408244947362E+03  0.6698408244947362E+03  0.2685928438004109E+01 0.  9
  -1 -1 0 0   0 502  0.5745878350040990E+01  0.1508436497924688E+01 -0.4418550376902941E+01  0.4418550376902941E+01  0.5940580668734419E+01 0.  9
 -13 +1 1 2   0   0 -0.3776999297870405E+02  0.2972109933556811E+01  0.1620495604119248E+03  0.1664195476401933E+03  0.0000000000000000E+00 0. -1
  13 +1 1 2   0   0  0.5311458263063004E+02  0.4730125869160886E+01  0.3585145988067602E+03  0.3624586190675238E+03  0.0000000000000000E+00 0.  1
  21 +1 1 2 501 502 -0.1153489910882964E+02 -0.4332243946948898E+01  0.1448581148991483E+03  0.1453812081639219E+03  0.0000000000000000E+00 0. -1
   #pdf1pdf2  0.3552560612893356E-04
</event>
<event>
  5  27  0.2401515482509494E+02  0.9329355339285873E+02  0.7546888109483510E-02  0.1175948068724739E+00
   1 -1 0 0 501   0 -0.8691639637545104E+00 -0.4727735194815970E+01  0.7351656681178764E+03  0.7351656681178764E+03  0.4806966410137588E+01 0.  9
  -1 -1 0 0   0 502  0.6314504814512255E+00  0.2295989326294757E+01 -0.4364211076092175E+01  0.4364211076092175E+01  0.2381238479653904E+01 0.  9
 -13 +1 1 2   0   0 -0.4387581027886987E+02 -0.1479812959697790E+02  0.3935580298649757E+03  0.3962726261532550E+03  0.0000000000000000E+00 0. -1
  13 +1 1 2   0   0  0.4233774650010565E+02 -0.7298518369765858E+01  0.1965774637320637E+03  0.2012174256778767E+03  0.0000000000000000E+00 0.  1
  21 +1 1 2 501 502  0.1300350296460934E+01  0.1966490209822254E+02  0.1406659634447449E+03  0.1420398273628368E+03  0.0000000000000000E+00 0.  1
   #pdf1pdf2  0.3241859403309141E-04
</event>
<event>
  5   1  0.2401515482509494E+02  0.1052282725304473E+03  0.7546888109483510E-02  0.1155066840148038E+00
   2 -1 0 0 502   0 -0.1635872802225392E+01  0.2940753189090614E+00  0.7658154205781892E+03  0.7658154205781892E+03  0.1662095099039830E+01 0.  9
  21 -1 0 0 501 502  0.2679579139528035E+02 -0.9287950605549595E+01 -0.8256314493593441E+01  0.8256314493593441E+01  0.2835983890910718E+02 0.  9
 -13 +1 1 2   0   0 -0.1399196910184211E+02  0.3617471619828391E+02  0.9081048865021741E+02  0.9874679812664587E+02  0.0000000000000000E+00 0.  1
  13 +1 1 2   0   0  0.2036746401332663E+02  0.3870647369826834E+01  0.5015981441305744E+03  0.5020264073698038E+03  0.0000000000000000E+00 0. -1
   2 +1 1 2 501   0  0.1878442368157044E+02 -0.4903923885475128E+02  0.1651504733038040E+03  0.1732985295753330E+03  0.0000000000000000E+00 0. -1
   #pdf1pdf2  0.1169568656476513E-03
</event>
<event>
  5   2  0.2401515482509494E+02  0.9523052860984542E+02  0.7546888109483510E-02  0.1172327693721349E+00
   1 -1 0 0 502   0 -0.2437075340369458E+01 -0.1201607145351298E+01  0.9985768145529925E+03  0.9985768145529925E+03  0.2717203699834851E+01 0.  9
  21 -1 0 0 501 502  0.2546703970822779E+02 -0.5711256541558133E+02 -0.6335283935769221E+01  0.6335283935769221E+01  0.6253331304072660E+02 0.  9
 -13 +1 1 2   0   0  0.2232766131405960E+01  0.1977463093317850E+02  0.2768954283938422E+03  0.2776096171578902E+03  0.0000000000000000E+00 0.  1
  13 +1 1 2   0   0 -0.3791530901210554E+01 -0.9029372706885074E+02  0.6524169568288718E+03  0.6586465048965225E+03  0.0000000000000000E+00 0. -1
   1 +1 1 2 501   0  0.2458872913766292E+02  0.1220492357473962E+02  0.6292914539450931E+02  0.6865597643434896E+02  0.0000000000000000E+00 0. -1
   #pdf1pdf2  0.1941117291168477E-05
</event>
<event>
  5   2  0.2401515482509494E+02  0.9663351738255204E+02  0.7546888109483510E-02  0.1169765116750664E+00
   1 -1 0 0 502   0 -0.2404539994094287E+01  0.2119897023637334E+01  0.1533228885483294E+04  0.1533228885483294E+04  0.3205585121943478E+01 0.  9
  21 -1 0 0 501 502 -0.3973413772588960E+02 -0.2858386958196056E+02 -0.2720661410060693E+01  0.2720661410060693E+01  0.4894731147977888E+02 0.  9
 -13 +1 1 2   0   0  0.2607745533650047E+02 -0.3999893908515195E+02  0.3710135119841451E+03  0.3740734886082870E+03  0.0000000000000000E+00 0.  1
  13 +1 1 2   0   0 -0.3687681020562714E+02  0.7163490580572045E+01  0.8253386585774342E+03  0.8261931469521145E+03  0.0000000000000000E+00 0. -1
   1 +1 1 2 501   0 -0.3133932285085721E+02  0.6371475946256673E+01  0.3341560535116541E+03  0.3356829113329534E+03  0.0000000000000000E+00 0. -1
   #pdf1pdf2  0.1586947377831048E-05
</event>
<event>
  5   1  0.2401515482509494E+02  0.9443253366109218E+02  0.7546888109483510E-02  0.1173807425980563E+00
   2 -1 0 0 502   0 -0.2450123516631210E+00  0.2215568571139853E+01  0.1248302802717609E+04  0.1248302802717609E+04  0.2229074952954741E+01 0.  9
  21 -1 0 0 501 502  0.3629071159421925E+01  0.3230465249119452E+01 -0.2659309855774776E+01  0.2659309855774776E+01  0.4858607126113038E+01 0.  9
 -13 +1 1 2   0   0 -0.1568757333025808E+02  0.2178362418343703E+02  0.1171669068769073E+03  0.1202027882649122E+03  0.0000000000000000E+00 0.  1
  13 +1 1 2   0   0  0.1999441129264347E+02 -0.4086031600787507E+02  0.8445371587723214E+03  0.8457614051577597E+03  0.0000000000000000E+00 0. -1
   2 +1 1 2 501   0 -0.9227791546265856E+00  0.2452272564469735E+02  0.2839394272126050E+03  0.2849979191507115E+03  0.0000000000000000E+00 0. -1
   #pdf1pdf2  0.1413420342960182E-02
</event>
<event>
  5  27  0.2401515482509494E+02  0.1066673710600518E+03  0.7546888109483510E-02  0.1152758443017306E+00
   1 -1 0 0 501   0  0.1416917519192378E+01 -0.1033481193757089E+01  0.7924387532209574E+03  0.7924387532209574E+03  0.1753778387950958E+01 0.  9
  -1 -1 0 0   0 502 -0.9445179850207401E+00  0.3877631008588129E+01 -0.1029664763719876E+02  0.1029664763719876E+02  0.3991006948477017E+01 0.  9
 -13 +1 1 2   0   0  0.6135903226723572E+02 -0.4109287522139000E+02  0.3808797394228902E+03  0.3879728484540911E+03  0.0000000000000000E+00 0.  1
  13 +1 1 2   0   0 -0.6905857687377505E+01  0.3174210170354841E+02  0.2749036883884727E+03  0.2768163466642518E+03  0.0000000000000000E+00 0. -1
  21 +1 1 2 501 502 -0.5398077504568658E+02  0.1219492333267263E+02  0.1263586777723957E+03  0.1379462057398133E+03  0.0000000000000000E+00 0.  1
   #pdf1pdf2  0.1001428575733339E-03
</event>
<event>
  5   2  0.2401515482509494E+02  0.1189672192537880E+03  0.7546888109483510E-02  0.1134542802726480E+00
   1 -1 0 0 502   0  0.9497545041264805E+00  0.1316425330361912E+01  0.1709495201840735E+04  0.1709495201840735E+04  0.1623271162969085E+01 0.  9
  21 -1 0 0 501 502  0.4221217334466932E+02 -0.8011587754893552E+02 -0.5587489882408947E+01  0.5587489882408947E+01  0.9055617822057444E+02 0.  9
 -13 +1 1 2   0   0  0.3356913615916292E+02  0.4037222205544078E+02  0.8817723400895023E+03  0.8833341740038609E+03  0.0000000000000000E+00 0.  1
  13 +1 1 2   0   0 -0.4852466432564526E+00 -0.4343301452154921E+02  0.4337116905612392E+03  0.4358812828560340E+03  0.0000000000000000E+00 0. -1
   1 +1 1 2 501   0  0.1007803833288934E+02 -0.7573865975246517E+02  0.3884236813075840E+03  0.3958672348632487E+03  0.0000000000000000E+00 0. -1
   #pdf1pdf2  0.5855805966392928E-06
</event>
<event>
  5  27  0.2401515482509494E+02  0.9364363860832954E+02  0.7546888109483510E-02  0.1175286477003981E+00
   1 -1 0 0 501   0 -0.2539061309462862E+01 -0.6917865120658560E-01  0.9016851829165671E+03  0.9016851829165671E+03  0.2540003547043592E+01 0.  9
  -1 -1 0 0   0 502 -0.1281533442374683E+01 -0.2600599390086249E+01 -0.4415800965214201E+01  0.4415800965214201E+01  0.2899214574956755E+01 0.  9
 -13 +1 1 2   0   0 -0.2310274316460852E+02 -0.3485588263055996E+02  0.1137646088155320E+03  0.1212066644811096E+03  0.0000000000000000E+00 0.  1
  13 +1 1 2   0   0  0.2278685893498946E+02  0.1117276985336951E+02  0.4228295425238025E+03  0.4235904788320998E+03  0.0000000000000000E+00 0. -1
  21 +1 1 2 501 502 -0.3504710522218488E+01  0.2101333473589762E+02  0.3606752306120184E+03  0.3613038405685720E+03  0.0000000000000000E+00 0.  1
   #pdf1pdf2  0.9344357873210905E-04
</event>
<event>
  5  27  0.2401515482509494E+02  0.9308708077421267E+02  0.7546888109483510E-02  0.1176339787223633E+00
   1 -1 0 0 501   0  0.1109931873807507E+01  0.8470473081703273E-01  0.1926204428693680E+04  0.1926204428693680E+04  0.1113159312909267E+01 0.  9
  -1 -1 0 0   0 502  0.1681586032228377E+01  0.1586038918509336E+00 -0.1884346985185789E+01  0.1884346985185789E+01  0.1689049075159109E+01 0.  9
 -13 +1 1 2   0   0 -0.3734781868691333E+02  0.6927155766072546E+01  0.2911675805069676E+03  0.2936348156911224E+03  0.0000000000000000E+00 0.  1
  13 +1 1 2   0   0  0.3872652888375391E+02 -0.2533648133275256E+02  0.1098745682123071E+04  0.1099719853103417E+04  0.0000000000000000E+00 0. -1
  21 +1 1 2 501 502  0.1412807709195304E+01  0.1865263418934798E+02  0.5344068190784556E+03  0.5347341068843261E+03  0.0000000000000000E+00 0.  1
   #pdf1pdf2  0.1791846409957923E-03
</event>
<event>
  5   1  0.2401515482509494E+02  0.1026757874968104E+03  0.7546888109483510E-02  0.1159263765484787E+00
   2 -1 0 0 502   0  0.4919154387115905E+01  0.1654141626091067E+01  0.7533489171443558E+03  0.7533489171443558E+03  0.5189823157242341E+01 0.  9
  21 -1 0 0 501 502 -0.1896860795490663E+01 -0.2366813088796649E+01 -0.7236902409964286E+01  0.7236902409964286E+01  0.3033131232698085E+01 0.  9
 -13 +1 1 2   0   0  0.5542897055656891E+02 -0.9799015546626839E+01  0.3860380873898502E+03  0.3901202332592577E+03  0.0000000000000000E+00 0. -1
  13 +1 1 2   0   0 -0.1256937925793225E+02 -0.1621225726581983E+02  0.2481909399809919E+03  0.2490372848977261E+03  0.0000000000000000E+00 0.  1
   2 +1 1 2 501   0 -0.3983729770701142E+02  0.2529860134974108E+02  0.1118829873635494E+03  0.1214283013973363E+03  0.0000000000000000E+00 0. -1
   #pdf1pdf2  0.3169529580655879E-03
</event>
<event>
  5   1  0.2401515482509494E+02  0.9393129091734819E+02  0.7546888109483510E-02  0.1174745290842625E+00
   2 -1 0 0 502   0  0.4801829972987952E+00  0.3187843531620874E+01  0.7853359763776500E+03  0.7853359763776500E+03  0.3223805529648446E+01 0.  9
  21 -1 0 0 501 502 -0.2138285776815717E+02 -0.1549142252166222E+02 -0.5196707735955965E+01  0.5196707735955965E+01  0.2640474915764024E+02 0.  9
 -13 +1 1 2   0   0  0.3744075168720753E+02 -0.4101155553264222E+02  0.2510551761099134E+03  0.2571234314987449E+03  0.0000000000000000E+00 0.  1
  13 +1 1 2   0   0 -0.4268755112376344E+02  0.1250016479405564E+02  0.3111495811111033E+03  0.3143128106941197E+03  0.0000000000000000E+00 0. -1
   2 +1 1 2 501   0 -0.1565587533430246E+02  0.1620781174854523E+02  0.2179345114206773E+03  0.2190964419207414E+03  0.0000000000000000E+00 0. -1
   #pdf1pdf2  0.4736219775308981E-04
</event>
<event>
  5   1  0.2401515482509494E+02  0.1062676467152305E+03  0.7546888109483510E-02  0.1153395519338873E+00
   2 -1 0 0 502   0 -0.2283464767511979E+01 -0.1723068386356798E+01  0.1379737648428709E+04  0.1379737648428709E+04  0.2860625108001878E+01 0.  9
  21 -1 0 0 501 502 -0.4216209092445652E+02 -0.2520846218432802E+02 -0.6819776916303562E+01  0.6819776916303562E+01  0.4912340050139888E+02 0.  9
 -13 +1 1 2   0   0 -0.7197356689969214E+02 -0.1766397495600170E+02  0.2835484363807211E+03  0.2930732436055235E+03  0.0000000000000000E+00 0. -1
  13 +1 1 2   0   0 -0.2599078782553543E+02 -0.1991006796800786E+02  0.6361067635005943E+03  0.6369487784975207E+03  0.0000000000000000E+00 0.  1
   2 +1 1 2 501   0  0.5351879903325908E+02  0.1064251235332474E+02  0.4532626716310906E+03  0.4565354032419686E+03  0.0000000000000000E+00 0. -1
   #pdf1pdf2  0.5251764673800948E-05
</event>
<event>
  5  26  0.2401515482509494E+02  0.9219110656822458E+02  0.7546888109483510E-02  0.1178052897780881E+00
   2 -1 0 0 501   0  0.8505105587294506E+00 -0.5122263038479497E+01  0.7334769915996521E+03  0.7334769915996521E+03  0.5192393171350133E+01 0.  9
  -2 -1 0 0   0 502 -0.1908384127698263E+02 -0.3727693306373546E+02 -0.5248663600463070E+01  0.5248663600463070E+01  0.4187795048140823E+02 0.  9
 -13 +1 1 2   0   0  0.2223516900624215E+02  0.1881182712017280E+02  0.2244574762289694E+03  0.2263392281850713E+03  0.0000000000000000E+00 0.  1
  13 +1 1 2   0   0 -0.3130844371232285E+02 -0.7121130746272851E+02  0.3803940338518222E+03  0.3882665192213980E+03  0.0000000000000000E+00 0. -1
  21 +1 1 2 501 502 -0.9160056012172477E+01  0.1000028424034076E+02  0.1233768179183975E+03  0.1241199077936459E+03  0.0000000000000000E+00 0. -1
   #pdf1pdf2  0.1313725409131606E-06
</event>
<event>
  5   1  0.2401515482509494E+02  0.9269049253209145E+02  0.7546888109483510E-02  0.1177095392816870E+00
   2 -1 0 0 502   0 -0.5190864764991637E+00  0.4677129667010232E+00  0.1189936990046054E+04  0.1189936990046054E+04  0.6987175318428680E+00 0.  9
  21 -1 0 0 501 502  0.3762480811766586E+01  0.5392782378003989E+01 -0.3418955050850907E+01  0.3418955050850907E+01  0.6575588463051965E+01 0.  9
 -13 +1 1 2   0   0  0.4589593674778792E+02 -0.6331689367649071E+01  0.1807590457778415E+03  0.1866021434247773E+03  0.0000000000000000E+00 0.  1
  13 +1 1 2   0   0 -0.2631917586678930E+02  0.9116355737184612E+01  0.5748379976051965E+03  0.5755124068610388E+03  0.0000000000000000E+00 0. -1
   2 +1 1 2 501   0 -0.1633336654573120E+02  0.3075828975169471E+01  0.4309209916121652E+03  0.4312413948110889E+03  0.0000000000000000E+00 0. -1
   #pdf1pdf2  0.6469296680470991E-02
</event>
<event>
  5   2  0.2401515482509494E+02  0.9190114021043991E+02  0.7546888109483510E-02  0.1178611990148612E+00
   1 -1 0 0 502   0 -0.1487014044238898E+01 -0.1972275195445979E+01  0.1457451763890883E+04  0.1457451763890883E+04  0.2470036480365259E+01 0.  9
  21 -1 0 0 501 502  0.1541102996272335E+02  0.2796719246091542E+01 -0.1907857830343147E+01  0.1907857830343147E+01  0.1566274187533637E+02 0.  9
 -13 +1 1 2   0   0 -0.1332104489704762E+02 -0.1183535693827497E+02  0.1305972600832960E+04  0.1306094162010309E+04  0.0000000000000000E+00 0. -1
  13 +1 1 2   0   0  0.1582950728341933E+02  0.1219408616802143E+02  0.6727034231008452E+02  0.7017526624691142E+02  0.0000000000000000E+00 0.  1
   1 +1 1 2 501   0  0.1141555353211274E+02  0.4657148208991051E+00  0.8230096291749464E+02  0.8309019346400491E+02  0.0000000000000000E+00 0. -1
   #pdf1pdf2  0.5598870194987705E-04
</event>
<event>
  5   2  0.2401515482509494E+02  0.9342645713420008E+02  0.7546888109483510E-02  0.1175696524690674E+00
   1 -1 0 0 502   0  0.5442916153754335E+00  0.6160856715948885E+00  0.1591543947220809E+04  0.1591543947220809E+04  0.8220796295448048E+00 0.  9
  21 -1 0 0 501 502  0.6016139370853424E+01 -0.4004748295615069E+01 -0.2321902815733622E+01  0.2321902815733622E+01  0.7227166930462062E+01 0.  9
 -13 +1 1 2   0   0  0.3117870279182451E+02 -0.3576845020909404E+02  0.4866202237173211E+03  0.4889281498020308E+03  0.0000000000000000E+00 0.  1
  13 +1 1 2   0   0 -0.1214015453036421E+02  0.4842695751232571E+02  0.6693937495209971E+03  0.6712529668192917E+03  0.0000000000000000E+00 0. -1
   1 +1 1 2 501   0 -0.1247811727523144E+02 -0.1604716992725186E+02  0.4332080711667572E+03  0.4336847334152203E+03  0.0000000000000000E+00 0. -1
   #pdf1pdf2  0.1165642551413381E-02
</event>
<event>
  5   1  0.2401515482509494E+02  0.9680002811394985E+02  0.7546888109483510E-02  0.1169464222425159E+00
   2 -1 0 0 502   0 -0.1847741279150936E+01 -0.1735670830457196E+01  0.1695711160149239E+04  0.1695711160149239E+04  0.2535093896954965E+01 0.  9
  21 -1 0 0 501 502  0.6075828590290993E+01  0.4899629403667178E+01 -0.4287176050741090E+01  0.4287176050741090E+01  0.7805258570468848E+01 0.  9
 -13 +1 1 2   0   0 -0.4640553995195729E+02 -0.3195755949045443E+02  0.1307396165116332E+04  0.1308609755545063E+04  0.0000000000000000E+00 0.  1
  13 +1 1 2   0   0  0.2081824619971313E+02  0.2223739311601381E+02  0.2959372139024470E+03  0.2975008161329489E+03  0.0000000000000000E+00 0. -1
   2 +1 1 2 501   0  0.2981538106338422E+02  0.1288412494765060E+02  0.8809060507971935E+02  0.9388776452196825E+02  0.0000000000000000E+00 0.  1
   #pdf1pdf2  0.1893696494317405E-03
</event>
<event>
  5  27  0.2401515482509494E+02  0.9195901120902528E+02  0.7546888109483510E-02  0.1178500223175802E+00
   1 -1 0 0 501   0 -0.1828658511529573E+01  0.8298801355533362E+00  0.9638339583674797E+03  0.9638339583674797E+03  0.2008156615201010E+01 0.  9
  -1 -1 0 0   0 502  0.4519536490201185E+01  0.2187564529209228E+02 -0.3522879625242484E+01  0.3522879625242484E+01  0.2233763790179479E+02 0.  9
 -13 +1 1 2   0   0 -0.2058529359193840E+02 -0.2253078340828736E+02  0.1680221592305174E+03  0.1707712988348534E+03  0.0000000000000000E+00 0.  1
  13 +1 1 2   0   0  0.1456498586333853E+02  0.5331635629093403E+02  0.7627028614337028E+03  0.7647028360745755E+03  0.0000000000000000E+00 0. -1
  21 +1 1 2 501 502  0.8711185707271476E+01 -0.8080047455001058E+01  0.2958605807801712E+02  0.3188270308329333E+02  0.0000000000000000E+00 0. -1
   #pdf1pdf2  0.2685654263325643E-05
</event>
<event>
  5  26  0.2401515482509494E+02  0.9487527285479290E+02  0.7546888109483510E-02  0.1172984434569780E+00
   2 -1 0 0 501   0  0.6449038345338700E+00 -0.4779152948030518E+01  0.5192908756211630E+03  0.5192908756211630E+03  0.4822468647535749E+01 0.  9
  -2 -1 0 0   0 502 -0.2003555582791682E+01  0.2289996247053536E+01 -0.6566032532421933E+01  0.6566032532421933E+01  0.3042748393287720E+01 0.  9
 -13 +1 1 2   0   0 -0.2399773457771955E+02  0.1240220086087873E+02  0.2639165770097984E+03  0.2652954305517250E+03  0.0000000000000000E+00 0. -1
  13 +1 1 2   0   0  0.4882252818938704E+02 -0.1421551060047308E+02  0.1753039518882917E+03  0.1825299853396372E+03  0.0000000000000000E+00 0.  1
  21 +1 1 2 501 502 -0.2618344535992530E+02 -0.6758469613826272E+00  0.7350431419065092E+02  0.7803149226222276E+02  0.0000000000000000E+00 0. -1
   #pdf1pdf2  0.5990935834698801E-04
</event>
<event>
  5   2  0.2401515482509494E+02  0.1051148278346338E+03  0.7546888109483510E-02  0.1155250569248450E+00
   1 -1 0 0 502   0 -0.2188496757455117E+00 -0.1813745956131386E+01  0.5125039986452680E+03  0.5125039986452680E+03  0.1826901632260716E+01 0.  9
  21 -1 0 0 501 502 -0.1102587430485122E+01 -0.3814654924265027E+00 -0.1220593680287418E+02  0.1220593680287418E+02  0.1166711174102647E+01 0.  9
 -13 +1 1 2   0   0  0.4579809908597379E+02  0.1785236567704702E+02  0.1443052408254603E+03  0.1524472871842912E+03  0.0000000000000000E+00 0.  1
  13 +1 1 2   0   0 -0.8949883725962160E+01 -0.5578155034537146E+02  0.1781989150916088E+03  0.1869399238190383E+03  0.0000000000000000E+00 0. -1
   1 +1 1 2 501   0 -0.3816965246624226E+02  0.3573397321976655E+02  0.1777939059253247E+03  0.1853227244448126E+03  0.0000000000000000E+00 0. -1
   #pdf1pdf2  0.2088813972861237E-02
</event>
<event>
  5  27  0.2401515482509494E+02  0.9175463797636823E+02  0.7546888109483510E-02  0.1178895343933645E+00
   1 -1 0 0 501   0  0.2187761888434762E+00 -0.6025627183253170E+00  0.8938220420420158E+03  0.8938220420420158E+03  0.6410498033074120E+00 0.  9
  -1 -1 0 0   0 502 -0.3006988096146915E+01 -0.5454865778872612E+01 -0.3056566044149122E+01  0.3056566044149122E+01  0.6228766978775555E+01 0.  9
 -13 +1 1 2   0   0 -0.4094295574285258E+02 -0.1229071989271673E+02  0.4976313386480237E+03  0.4994640493820015E+03  0.0000000000000000E+00 0. -1
  13 +1 1 2   0   0  0.3893220950093846E+02  0.1638323317237341E+02  0.2222939968453944E+03  0.2262714040688870E+03  0.0000000000000000E+00 0.  1
  21 +1 1 2 501 502 -0.7774656653893219E+00 -0.1014994177685461E+02  0.1708401405044486E+03  0.1711431546352765E+03  0.0000000000000000E+00 0. -1
   #pdf1pdf2  0.2620148824819920E-03
</event>
<event>
  5   1  0.2401515482509494E+02  0.1100554121236171E+03  0.7546888109483510E-02  0.1147480379879344E+00
   2 -1 0 0 502   0  0.4676931229450378E+01  0.2197524142149174E+01  0.1264156018433875E+04  0.1264156018433875E+04  0.5167475019807710E+01 0.  9
  21 -1 0 0 501 502  0.4072800704362400E+02 -0.8637262317577461E+01 -0.5993820860473899E+01  0.5993820860473899E+01  0.4163379466356784E+02 0.  9
 -13 +1 1 2   0   0  0.9402694491072974E+00 -0.3573274599617970E+02  0.8131926890402151E+02  0.8882869321423671E+02  0.0000000000000000E+00 0.  1
  13 +1 1 2   0   0  0.1779036549898406E+02 -0.2625325632532786E+02  0.6693832180935477E+03  0.6701340337854398E+03  0.0000000000000000E+00 0. -1
   2 +1 1 2 501   0  0.2667430332498303E+02  0.5554626414607927E+02  0.5074597105758315E+03  0.5111871122946723E+03  0.0000000000000000E+00 0. -1
   #pdf1pdf2  0.2284509456057946E-05
</event>
<event>
  5  26  0.2401515482509494E+02  0.9179360574287314E+02  0.7546888109483510E-02  0.1178819917592311E+00
   2 -1 0 0 501   0 -0.6307409800672932E+00 -0.1574424376135855E+01  0.1568390909046902E+04  0.1568390909046902E+04  0.1696067893719772E+01 0.  9
  -2 -1 0 0   0 502 -0.3898917630304199E+01  0.1850709166073787E+01 -0.1925590529335542E+01  0.1925590529335542E+01  0.4315864120345593E+01 0.  9
 -13 +1 1 2   0   0  0.4328420967186856E+02  0.2277338386948304E+02  0.5234159752844411E+03  0.5256961413238142E+03  0.0000000000000000E+00 0.  1
  13 +1 1 2   0   0 -0.4422532577189602E+02 -0.1260262594099510E+02  0.7736607226030986E+03  0.7750262055691974E+03  0.0000000000000000E+00 0. -1
  21 +1 1 2 501 502 -0.3588542510344033E+01 -0.9894473138550003E+01  0.2693886206300265E+03  0.2695941526832256E+03  0.0000000000000000E+00 0. -1
   #pdf1pdf2  0.1568640551070956E-03
</event>
<event>
  5   1  0.2401515482509494E+02  0.1073828218113292E+03  0.7546888109483510E-02  0.1151625905162661E+00
   2 -1 0 0 502   0  0.9431534556867576E+00  0.3784549120371944E+00  0.2295083876981422E+04  0.2295083876981422E+04  0.1016251229479676E+01 0.  9
  21 -1 0 0 501 502 -0.6479000088923036E+02  0.4576363583328058E+01 -0.3426668090166920E+01  0.3426668090166920E+01  0.6495142276250215E+02 0.  9
 -13 +1 1 2   0   0 -0.2078662615697397E+02 -0.3113165729017636E+02  0.4402258142829336E+03  0.4418144763061694E+03  0.0000000000000000E+00 0.  1
  13 +1 1 2   0   0  0.1361124373621773E+02  0.3405481286367127E+02  0.1520423202135557E+04  0.1520865447640707E+04  0.0000000000000000E+00 0. -1
   2 +1 1 2 501   0 -0.5667146501278737E+02  0.2031662921870335E+01  0.3310081924727640E+03  0.3358306211247123E+03  0.0000000000000000E+00 0. -1
   #pdf1pdf2  0.3487644612831772E-05
</event>
<event>
  5  27  0.2401515482509494E+02  0.9176758219665987E+02  0.7546888109483510E-02  0.1178870284341332E+00
   1 -1 0 0 501   0 -0.2536425931302531E+01 -0.4780957980479309E+00  0.2215933353070738E+04  0.2215933353070738E+04  0.2581091260900125E+01 0.  9
  -1 -1 0 0   0 502 -0.1193504704303676E+02  0.6972279769159691E+01 -0.1282019260416993E+01  0.1282019260416993E+01  0.1382237436546029E+02 0.  9
 -13 +1 1 2   0   0  0.2334410432829474E+02 -0.1185025471041721E+02  0.2303905584844070E+03  0.2318732092811696E+03  0.0000000000000000E+00 0.  1
  13 +1 1 2   0   0 -0.3827724756926207E+02  0.2862977696209322E+02  0.1872024721626361E+04  0.1872634873698189E+04  0.0000000000000000E+00 0. -1
  21 +1 1 2 501 502  0.4616702666280386E+00 -0.1028533828056425E+02  0.1122360536995529E+03  0.1127072893517968E+03  0.0000000000000000E+00 0.  1
   #pdf1pdf2  0.3463697433241066E-06
</event>
<event>
  5   1  0.2401515482509494E+02  0.1014236448758734E+03  0.7546888109483510E-02  0.1161372225454709E+00
   2 -1 0 0 502   0  0.9270196816714773E+00 -0.3129841963632228E+00  0.9464477218399318E+03  0.9464477218399318E+03  0.9784296588817305E+00 0.  9
  21 -1 0 0 501 502 -0.1445631431845141E+02 -0.4320496532828852E+02 -0.5554657628085709E+01  0.5554657628085709E+01  0.4555934649106018E+02 0.  9
 -13 +1 1 2   0   0 -0.1155063489303014E+02  0.3399391879793061E+02  0.1269029594344836E+03  0.1318839065045564E+03  0.0000000000000000E+00 0.  1
  13 +1 1 2   0   0  0.3303473281663209E+01 -0.3342596364354550E+02  0.6281643949626748E+03  0.6290617736598256E+03  0.0000000000000000E+00 0. -1
   2 +1 1 2 501   0 -0.5282133025413007E+01 -0.4408590467903686E+02  0.1858257098146877E+03  0.1910566993036355E+03  0.0000000000000000E+00 0. -1
   #pdf1pdf2  0.9417928838601881E-04
</event>
<event>
  5   1  0.2401515482509494E+02  0.9473852130548300E+02  0.7546888109483510E-02  0.1173238098906339E+00
   2 -1 0 0 502   0  0.7378307730257125E+00 -0.1107123379120338E+01  0.1770565578071062E+04  0.1770565578071062E+04  0.1330457224497863E+01 0.  9
  21 -1 0 0 501 502 -0.1613978930462514E+02  0.1247885241117803E+01 -0.2969267990402956E+01  0.2969267990402956E+01  0.1618795899342137E+02 0.  9
 -13 +1 1 2   0   0  0.3625354272092584E+02 -0.2695008017104749E+02  0.5079682947811282E+03  0.5099729548553443E+03  0.0000000000000000E+00 0.  1
  13 +1 1 2   0   0 -0.3254643522678822E+02  0.4426475234879664E+02  0.1134177599643438E+04  0.1135507580899142E+04  0.0000000000000000E+00 0. -1
   2 +1 1 2 501   0 -0.1910906602573705E+02 -0.1717391031575169E+02  0.1254504156560934E+03  0.1280543103069789E+03  0.0000000000000000E+00 0. -1
   #pdf1pdf2  0.2658617344013725E-03
</event>
<event>
  5  27  0.2401515482509494E+02  0.9179944600777375E+02  0.7546888109483510E-02  0.1178808616736495E+00
   1 -1 0 0 501   0  0.4277742115673881E-01  0.2974383832743286E+00  0.8410580215815377E+03  0.8410580215815377E+03  0.3004987514211455E+00 0.  9
  -1 -1 0 0   0 502  0.1759539440438225E+01  0.8739792206571643E+00 -0.2726317825864677E+01  0.2726317825864677E+01  0.1964642135504114E+01 0.  9
 -13 +1 1 2   0   0 -0.2470215430258342E+02 -0.2833233753873359E+02  0.2958228712860869E+03  0.2982014234599528E+03  0.0000000000000000E+00 0. -1
  13 +1 1 2   0   0  0.2480464032041623E+02  0.3994219579233896E+02  0.4607948804181299E+03  0.4631874037640676E+03  0.0000000000000000E+00 0.  1
  21 +1 1 2 501 502  0.1699830843762152E+01 -0.1043844064967389E+02  0.8171395205145620E+02  0.8239551218338201E+02  0.0000000000000000E+00 0.  1
   #pdf1pdf2  0.2200763126097712E-02
</event>
<event>
  5  26  0.2401515482509494E+02  0.9348881037651880E+02  0.7546888109483510E-02  0.1175578671508339E+00
   2 -1 0 0 501   0  0.4310674037096869E+01  0.2732622763980113E+01  0.6583295424447975E+03  0.6583295424447975E+03  0.5103835599264864E+01 0.  9
  -2 -1 0 0   0 502  0.1875534897085346E+01 -0.5653303307523146E+01 -0.5088486829542010E+01  0.5088486829542010E+01  0.5956296620974905E+01 0.  9
 -13 +1 1 2   0   0 -0.3461925692816276E+02 -0.4537291537121300E+01  0.1925338354119172E+03  0.1956741110703565E+03  0.0000000000000000E+00 0. -1
  13 +1 1 2   0   0  0.5959066754335836E+02 -0.6867847986247275E+01  0.3576695035029516E+03  0.3626647056583714E+03  0.0000000000000000E+00 0.  1
  21 +1 1 2 501 502 -0.1878520168101338E+02  0.8484458979825542E+01  0.1030377167003867E+03  0.1050792125456117E+03  0.0000000000000000E+00 0. -1
   #pdf1pdf2  0.1639486334494734E-04
</event>
<event>
  5  26  0.2401515482509494E+02  0.9184991808353004E+02  0.7546888109483510E-02  0.1178710992945861E+00
   2 -1 0 0 501   0  0.7455837571556559E+00 -0.2459030487735647E+01  0.8697298731278991E+03  0.8697298731278991E+03  0.2569577023275963E+01 0.  9
  -2 -1 0 0   0 502  0.6286611197874286E+01 -0.5669184973910247E+01 -0.1357751328724445E+01  0.1357751328724445E+01  0.8465290226663708E+01 0.  9
 -13 +1 1 2   0   0 -0.1409255957718492E+01 -0.2687690288329105E+02  0.4729777535658503E+03  0.4737428725365168E+03  0.0000000000000000E+00 0. -1
  13 +1 1 2   0   0  0.1292656761853143E+01  0.2711614670743223E+02  0.3202801734599347E+03  0.3214286015358447E+03  0.0000000000000000E+00 0.  1
  21 +1 1 2 501 502  0.7148794150895291E+01 -0.8367459285787074E+01  0.7511419477338961E+02  0.7591615038426204E+02  0.0000000000000000E+00 0. -1
   #pdf1pdf2  0.5908086341587009E-04
</event>
<event>
  5  26  0.2401515482509494E+02  0.9240081166693918E+02  0.7546888109483510E-02  0.1177649991669058E+00
   2 -1 0 0 501   0  0.1229785168860355E+01  0.4497022642493463E+01  0.1236685719703181E+04  0.1236685719703181E+04  0.4662143735305442E+01 0.  9
  -2 -1 0 0   0 502 -0.6038964639857873E+01 -0.3528311866737208E+00 -0.2087164662656026E+01  0.2087164662656026E+01  0.6049263076420409E+01 0.  9
 -13 +1 1 2   0   0  0.2199174910068922E+02  0.1691009984254208E+01  0.1016797687738377E+04  0.1017036889367040E+04  0.0000000000000000E+00 0. -1
  13 +1 1 2   0   0 -0.1829668300045399E+02  0.1471287089395027E+02  0.8791950800941731E+02  0.9100042344615296E+02  0.0000000000000000E+00 0.  1
  21 +1 1 2 501 502 -0.8504245571232747E+01 -0.1225968942238474E+02  0.1298813592927306E+03  0.1307355715526442E+03  0.0000000000000000E+00 0.  1
   #pdf1pdf2  0.1210776124045390E-04
</event>
<event>
  5   2  0.2401515482509494E+02  0.9174326304157854E+02  0.7546888109483510E-02  0.1178917369259378E+00
   1 -1 0 0 502   0 -0.2102549321055239E+01  0.1028061412950498E+01  0.1140072072713930E+04  0.1140072072713930E+04  0.2340432420786300E+01 0.  9
  21 -1 0 0 501 502  0.1832237838261673E+01 -0.1926747015250476E+01 -0.2365529803868666E+01  0.2365529803868666E+01  0.2658843650298834E+01 0.  9
 -13 +1 1 2   0   0  0.2178804779313541E+02 -0.3562877362395784E+01  0.6555876290390161E+02  0.6917632915402068E+02  0.0000000000000000E+00 0.  1
  13 +1 1 2   0   0 -0.1412214866548917E+02  0.8873463490582115E+01  0.1020684430377124E+04  0.1020820689372782E+04  0.0000000000000000E+00 0. -1
   1 +1 1 2 501   0 -0.7936210610439802E+01 -0.6209271730486309E+01  0.5146334962903575E+02  0.5244058399099544E+02  0.0000000000000000E+00 0. -1
   #pdf1pdf2  0.8832900834519644E-03
</event>
<event>
  5  26  0.2401515482509494E+02  0.9430329381629812E+02  0.7546888109483510E-02  0.1174048618921137E+00
   2 -1 0 0 501   0  0.3050214824795889E+01 -0.5772627466502760E+01  0.1025528323921911E+04  0.1025528323921911E+04  0.6528938531218278E+01 0.  9
  -2 -1 0 0   0 502 -0.8537872474082357E+01 -0.4265542974342604E+01 -0.3933144051907767E+01  0.3933144051907767E+01  0.9544114586993219E+01 0.  9
 -13 +1 1 2   0   0 -0.3596802804681387E+02 -0.4233108369106969E+02  0.3644210678259622E+03  0.3686303492164628E+03  0.0000000000000000E+00 0.  1
  13 +1 1 2   0   0  0.4014115112721102E+02  0.1028171789295155E+02  0.2998812467327234E+03  0.3027305532625016E+03  0.0000000000000000E+00 0. -1
  21 +1 1 2 501 502 -0.9660780729683623E+01  0.2201119535727278E+02  0.3572928653113173E+03  0.3581005654948539E+03  0.0000000000000000E+00 0. -1
   #pdf1pdf2  0.2183368575063993E-05
</event>
<event>
  5  26  0.2401515482509494E+02  0.9544839963564996E+02  0.7546888109483510E-02  0.1171926514472561E+00
   2 -1 0 0 501   0 -0.1293222312355289E+01 -0.1064566999465592E+01  0.5178005503050347E+03  0.5178005503050347E+03  0.1675030401373281E+01 0.  9
  -2 -1 0 0   0 502 -0.1330843315548025E+02 -0.2383264100977713E+02 -0.8172846647618512E+01  0.8172846647618512E+01  0.2729668790448388E+02 0.  9
 -13 +1 1 2   0   0 -0.2833929215960085E+02  0.1681038135335590E+02  0.1085001416288057E+03  0.1133930559374046E+03  0.0000000000000000E+00 0.  1
  13 +1 1 2   0   0  0.4185294923538041E+02 -0.4386127790590885E+02  0.3386563834198770E+03  0.3440401533110190E+03  0.0000000000000000E+00 0. -1
  21 +1 1 2 501 502 -0.2811531254361510E+02  0.2153688543310224E+01  0.6247117860873351E+02  0.6854018770422962E+02  0.0000000000000000E+00 0.  1
   #pdf1pdf2  0.4765002033495577E-05
</event>
<event>
  5   1  0.2401515482509494E+02  0.9211126603481843E+02  0.7546888109483510E-02  0.1178206610723779E+00
   2 -1 0 0 502   0  0.1244023048039607E+02 -0.1582685380266108E+00  0.3850813173744781E+03  0.3850813173744781E+03  0.1244123721080442E+02 0.  9
  21 -1 0 0 501 502  0.1741761695550701E+01 -0.3579785567146917E+01 -0.7209337927978384E+01  0.7209337927978384E+01  0.3981029830438480E+01 0.  9
 -13 +1 1 2   0   0  0.4173155986191111E+02  0.2885936446614512E+02  0.1769284602133143E+03  0.1840599522963982E+03  0.0000000000000000E+00 0.  1
  13 +1 1 2   0   0 -0.3321465944509805E+02 -0.2088826631089893E+02  0.1732063827951293E+03  0.1775950008094308E+03  0.0000000000000000E+00 0. -1
   2 +1 1 2 501   0  0.5665091759133707E+01 -0.1170915226041971E+02  0.2773713643805614E+02  0.3063570219662736E+02  0.0000000000000000E+00 0. -1
   #pdf1pdf2  0.3780107691897924E-04
</event>
<event>
  5   1  0.2401515482509494E+02  0.9396266798103102E+02  0.7546888109483510E-02  0.1174686389677464E+00
   2 -1 0 0 502   0  0.6029264858812889E+01  0.9411655643525739E+01  0.6918576975303260E+03  0.6918576975303260E+03  0.1117726695977268E+02 0.  9
  21 -1 0 0 501 502  0.4249176852695832E+01  0.3067473160391955E+01 -0.3582257128475867E+01  0.3582257128475867E+01  0.5240696090712670E+01 0.  9
 -13 +1 1 2   0   0  0.1164458321853955E+02  0.1528802549712698E+02  0.4933433195744167E+03  0.4937174809652170E+03  0.0000000000000000E+00 0.  1
  13 +1 1 2   0   0 -0.7226582755000010E+01 -0.2470296856786468E+02  0.1391730856771184E+03  0.1415330630321775E+03  0.0000000000000000E+00 0. -1
   2 +1 1 2 501   0  0.5860441247969179E+01  0.2189407187465540E+02  0.5575903515031507E+02  0.6018941066140744E+02  0.0000000000000000E+00 0.  1
   #pdf1pdf2  0.3485713918345585E-04
</event>
<event>
  5   1  0.2401515482509494E+02  0.9512155032031212E+02  0.7546888109483510E-02  0.1172528813749756E+00
   2 -1 0 0 502   0  0.1278886480838877E+01 -0.1177316895905029E+01  0.6309032718912313E+03  0.6309032718912313E+03  0.1738282400605810E+01 0.  9
  21 -1 0 0 501 502  0.7679400921348257E+01  0.6050845433612258E+01 -0.5621625530912140E+01  0.5621625530912140E+01  0.9776805663010325E+01 0.  9
 -13 +1 1 2   0   0 -0.6599465637168332E+01  0.3945090457021762E+02  0.3775853428133338E+03  0.3796980615246375E+03  0.0000000000000000E+00 0. -1
  13 +1 1 2   0   0 -0.1120381997361818E+02 -0.3865655805479786E+02  0.1316400352895092E+03  0.1376551995155593E+03  0.0000000000000000E+00 0.  1
   2 +1 1 2 501   0  0.2676157301297364E+02  0.4079182022287460E+01  0.1160562682574761E+03  0.1191716363819467E+03  0.0000000000000000E+00 0. -1
   #pdf1pdf2  0.1214814459968954E-02
</event>
<event>
  5  26  0.2401515482509494E+02  0.9299110161014444E+02  0.7546888109483510E-02  0.1176522265836539E+00
   2 -1 0 0 501   0  0.9854186711482967E+00 -0.5239925789702867E+00  0.1536314249091696E+04  0.1536314249091696E+04  0.1116072659043132E+01 0.  9
  -2 -1 0 0   0 502 -0.2142829576673770E+01  0.1790940931045190E+01 -0.2271369727312277E+01  0.2271369727312277E+01  0.2792702636007081E+01 0.  9
 -13 +1 1 2   0   0  0.2864715488116844E+02 -0.2481305877656475E+02  0.3485747691519418E+03  0.3506290305407760E+03  0.0000000000000000E+00 0.  1
  13 +1 1 2   0   0 -0.3500577141344914E+02  0.4354438857936442E+02  0.7351764169485637E+03  0.7372963324514301E+03  0.0000000000000000E+00 0. -1
  21 +1 1 2 501 502  0.5201205626755232E+01 -0.1746438145072478E+02  0.4502916932638777E+03  0.4506602558268017E+03  0.0000000000000000E+00 0. -1
   #pdf1pdf2  0.6645761622276092E-03
</event>
<event>
  5   1  0.2401515482509494E+02  0.9224572548285158E+02  0.7546888109483510E-02  0.1177947843082319E+00
   2 -1 0 0 502   0 -0.2277407516978438E+01 -0.3768186106211410E+01  0.6973945988619773E+03  0.6973945988619773E+03  0.4402932151354890E+01 0.  9
  21 -1 0 0 501 502 -0.1245170870721208E+02 -0.2292896095995509E+02 -0.2047645993875883E+01  0.2047645993875883E+01  0.2609180523521525E+02 0.  9
 -13 +1 1 2   0   0  0.6079368236104076E+01 -0.2691680193449342E+02  0.1575217137544465E+03  0.1599204903965364E+03  0.0000000000000000E+00 0. -1
  13 +1 1 2   0   0 -0.1520700548628825E+02  0.1297149724193629E+02  0.4617277455012483E+03  0.4621601710686708E+03  0.0000000000000000E+00 0.  1
   2 +1 1 2 501   0 -0.5601478974006348E+01 -0.1275184237360937E+02  0.7609749361240665E+02  0.7736158339064608E+02  0.0000000000000000E+00 0.  1
   #pdf1pdf2  0.4119222030914997E-04
</event>
<event>
  5  21  0.2401515482509494E+02  0.9275130290473196E+02  0.7546888109483510E-02  0.1176979258468398E+00
  -2 -1 0 0   0 502  0.1190539324328223E+01  0.1644676285750277E+01  0.8089110088673289E+03  0.8089110088673289E+03  0.2030355625914148E+01 0.  9
   2 -1 0 0 501   0 -0.1200092455093584E+02  0.6436579692239301E+01 -0.3692603621490224E+01  0.3692603621490224E+01  0.1361806697779835E+02 0.  9
 -13 +1 1 2   0   0 -0.5084890518800879E+02 -0.9271211137223441E+01  0.2586174367276276E+03  0.2637319569076500E+03  0.0000000000000000E+00 0. -1
  13 +1 1 2   0   0  0.3167955778311077E+02  0.2599700507310287E+01  0.4082334676566061E+03  0.4094690671332798E+03  0.0000000000000000E+00 0.  1
  21 +1 1 2 501 502  0.8358962178290398E+01  0.1475276660790273E+02  0.1383675008616050E+03  0.1394025884478893E+03  0.0000000000000000E+00 0.  1
   #pdf1pdf2  0.1346639837422410E-05
</event>
<event>
  5  26  0.2401515482509494E+02  0.9209892635227665E+02  0.7546888109483510E-02  0.1178230383250085E+00
   2 -1 0 0 501   0 -0.8899816985161607E+00  0.3593633775078818E+00  0.1776574306499698E+04  0.1776574306499698E+04  0.9597965726067075E+00 0.  9
  -2 -1 0 0   0 502 -0.4018306545363967E+01 -0.1703852883194121E+02 -0.1808333348662572E+01  0.1808333348662572E+01  0.1750594905309069E+02 0.  9
 -13 +1 1 2   0   0 -0.4996103809959133E+02 -0.6189539368312920E+01  0.7772242098801454E+03  0.7788529310141917E+03  0.0000000000000000E+00 0. -1
  13 +1 1 2   0   0  0.3744293518940354E+02 -0.4859468369039810E-01  0.3772909477282791E+03  0.3791443458562243E+03  0.0000000000000000E+00 0.  1
  21 +1 1 2 501 502  0.7609814666307657E+01 -0.1044103140243001E+02  0.6202508155426112E+03  0.6203853629779449E+03  0.0000000000000000E+00 0.  1
   #pdf1pdf2  0.1986508374696105E-04
</event>
<event>
  5  26  0.2401515482509494E+02  0.9232743972725527E+02  0.7546888109483510E-02  0.1177790824824056E+00
   2 -1 0 0 501   0 -0.5218555311326686E+01  0.1757933335792888E+01  0.5610137400664993E+03  0.5610137400664993E+03  0.5506691306988968E+01 0.  9
  -2 -1 0 0   0 502 -0.5475127036739353E+02  0.2860116798383461E+01 -0.7815118293520566E+01  0.7815118293520566E+01  0.5482592338432450E+02 0.  9
 -13 +1 1 2   0   0 -0.7012971843604240E+02  0.5849132080466804E+01  0.1645727813046407E+03  0.1789876814207012E+03  0.0000000000000000E+00 0.  1
  13 +1 1 2   0   0  0.6417849332297266E+01  0.1273550025391819E+02  0.2629201031303137E+03  0.2633065938916541E+03  0.0000000000000000E+00 0. -1
  21 +1 1 2 501 502  0.3742043425024917E+01 -0.1396658220020865E+02  0.1257057373380243E+03  0.1265345830476645E+03  0.0000000000000000E+00 0. -1
   #pdf1pdf2  0.4110145889481359E-07
</event>
<event>
  5   1  0.2401515482509494E+02  0.9269968312262002E+02  0.7546888109483510E-02  0.1177077834426008E+00
   2 -1 0 0 502   0 -0.1937317413708634E+01  0.5365716252737204E+00  0.1080428025455022E+04  0.1080428025455022E+04  0.2010250698422362E+01 0.  9
  21 -1 0 0 501 502 -0.1345399957162403E+02 -0.7232105180231066E+01 -0.3279578105215018E+01  0.3279578105215018E+01  0.1527460146161544E+02 0.  9
 -13 +1 1 2   0   0 -0.2235546039433011E+02 -0.2684200031126717E+02  0.1661773848680572E+03  0.1698092542582381E+03  0.0000000000000000E+00 0.  1
  13 +1 1 2   0   0  0.2362102696400770E+02  0.2084765291489508E+02  0.8528959926936925E+03  0.8534776809617540E+03  0.0000000000000000E+00 0. -1
   2 +1 1 2 501   0 -0.1665688355501025E+02 -0.7011861585852515E+00  0.5807506978805691E+02  0.6042066834024466E+02  0.0000000000000000E+00 0. -1
   #pdf1pdf2  0.3873612167299558E-03
</event>
<event>
  5   2  0.2401515482509494E+02  0.9369706688377387E+02  0.7546888109483510E-02  0.1175185793054641E+00
   1 -1 0 0 502   0  0.1043926549060855E+01  0.1554749483059717E+01  0.1490158482704425E+04  0.1490158482704425E+04  0.1872706222264603E+01 0.  9
  21 -1 0 0 501 502  0.5092554150542395E+00 -0.3240341700753360E+01 -0.3403335027546467E+01  0.3403335027546467E+01  0.3280115152765714E+01 0.  9
 -13 +1 1 2   0   0 -0.1543345288711511E+02  0.4429260320064675E+02  0.5887969802346902E+03  0.5906622639883125E+03  0.0000000000000000E+00 0.  1
  13 +1 1 2   0   0 -0.4467223178352565E+01 -0.4408491809346117E+02  0.8383441495088077E+03  0.8395143531243992E+03  0.0000000000000000E+00 0. -1
   1 +1 1 2 501   0  0.2145385802958277E+02 -0.1893277324879220E+01  0.5961401793338086E+02  0.6338520061926010E+02  0.0000000000000000E+00 0. -1
   #pdf1pdf2  0.5846425735563821E-03
</event>
<event>
  5  26  0.2401515482509494E+02  0.9182816683875029E+02  0.7546888109483510E-02  0.1178753055895451E+00
   2 -1 0 0 501   0 -0.2340176372142878E+01 -0.2610289504886967E+01  0.5783934368765442E+03  0.5783934368765442E+03  0.3505714870330850E+01 0.  9
  -2 -1 0 0   0 502 -0.4948171269796664E+00 -0.5060525396569154E+01 -0.4651533454253854E+01  0.4651533454253854E+01  0.5084659406339210E+01 0.  9
 -13 +1 1 2   0   0 -0.7990246800644164E+01 -0.4673710485035421E+02  0.1604635877483110E+03  0.1673223356482575E+03  0.0000000000000000E+00 0. -1
  13 +1 1 2   0   0 -0.3546045790611152E+01  0.3263108988715874E+02  0.3489485197928474E+03  0.3504888470887371E+03  0.0000000000000000E+00 0.  1
  21 +1 1 2 501 502  0.8701299092132771E+01  0.6435200061739360E+01  0.6432979588113199E+02  0.6523378759380346E+02  0.0000000000000000E+00 0.  1
   #pdf1pdf2  0.6066343474145528E-04
</event>
<event>
  5   1  0.2401515482509494E+02  0.9220465980795092E+02  0.7546888109483510E-02  0.1178026821713038E+00
   2 -1 0 0 502   0 -0.1589120103827994E+00 -0.6057626786681312E-01  0.5856548947775955E+03  0.5856548947775955E+03  0.1700661967369613E+00 0.  9
  21 -1 0 0 501 502  0.1969040536607577E+02  0.1828544827051942E+02 -0.3290521896425209E+01  0.3290521896425209E+01  0.2687135430033676E+02 0.  9
 -13 +1 1 2   0   0 -0.1174270673879506E+02  0.3231998660966533E+02  0.2897958407666583E+03  0.2918288916842482E+03  0.0000000000000000E+00 0. -1
  13 +1 1 2   0   0  0.2139103642175020E+02 -0.2351501624545018E+02  0.1244983627553831E+03  0.1284927031274204E+03  0.0000000000000000E+00 0.  1
   2 +1 1 2 501   0  0.9883163672737830E+01  0.9419901638437457E+01  0.1680701693591289E+03  0.1686238218623520E+03  0.0000000000000000E+00 0. -1
   #pdf1pdf2  0.1052789409272932E-02
</event>
<event>
  5   1  0.2401515482509494E+02  0.9188382124574093E+02  0.7546888109483510E-02  0.1178645456387747E+00
   2 -1 0 0 502   0 -0.6912332639971696E+00 -0.2028418632893178E+01  0.8517930947771097E+03  0.8517930947771097E+03  0.2142961869825128E+01 0.  9
  21 -1 0 0 501 502 -0.4549993419367465E+01 -0.8708395799469985E+01 -0.3367693989514984E+01  0.3367693989514984E+01  0.9825405717654295E+01 0.  9
 -13 +1 1 2   0   0  0.4567400899157653E+02 -0.1964425597678803E+01  0.3135241673273688E+03  0.3168396717010220E+03  0.0000000000000000E+00 0.  1
  13 +1 1 2   0   0 -0.3982269968530432E+02 -0.6697676132191063E+01  0.5002795785275740E+03  0.5019067273583058E+03  0.0000000000000000E+00 0. -1
   2 +1 1 2 501   0 -0.1109253598963684E+02 -0.2074712702493297E+01  0.3462165493265184E+02  0.3641438970729691E+02  0.0000000000000000E+00 0. -1
   #pdf1pdf2  0.9100593925755081E-03
</event>
<event>
  5  26  0.2401515482509494E+02  0.9257745648179610E+02  0.7546888109483510E-02  0.1177311531913315E+00
   2 -1 0 0 501   0  0.1448887941768725E+01 -0.1445276435406425E+01  0.5149711865115117E+03  0.5149711865115117E+03  0.2046484850308918E+01 0.  9
  -2 -1 0 0   0 502  0.1595042335531275E+01  0.4547616815071457E+00 -0.6249550938416593E+01  0.6249550938416593E+01  0.1658604304559792E+01 0.  9
 -13 +1 1 2   0   0  0.3301500352143805E+02 -0.4501471483139348E+02  0.1898637315061024E+03  0.1979003576305349E+03  0.0000000000000000E+00 0. -1
  13 +1 1 2   0   0 -0.1906930580033257E+02  0.3234305732517604E+02  0.2262292245154280E+03  0.2293237314490111E+03  0.0000000000000000E+00 0.  1
  21 +1 1 2 501 502 -0.1090176744380548E+02  0.1168114275231816E+02  0.9262867955156474E+02  0.9399664837038245E+02  0.0000000000000000E+00 0.  1
   #pdf1pdf2  0.8376577289724271E-03
</event>
<event>
  5  26  0.2401515482509494E+02  0.9347525050417693E+02  0.7546888109483510E-02  0.1175604292114063E+00
   2 -1 0 0 501   0  0.9820973014403135E+00 -0.1455260548652790E+01  0.1007100832665796E+04  0.1007100832665796E+04  0.1755647565418972E+01 0.  9
  -2 -1 0 0   0 502  0.3584156386586197E+01 -0.6405286901116375E+01 -0.3419067183449334E+01  0.3419067183449334E+01  0.7339882648184481E+01 0.  9
 -13 +1 1 2   0   0  0.7434940189287829E+01 -0.2412058354796742E+02  0.5565852681696245E+02  0.6111425769611615E+02  0.0000000000000000E+00 0.  1
  13 +1 1 2   0   0  0.1685151314901404E+02  0.2204349210061667E+02  0.6931885102682857E+03  0.6937436124443716E+03  0.0000000000000000E+00 0. -1
  21 +1 1 2 501 502 -0.1972019965027535E+02 -0.5783456002418421E+01  0.2548347283970983E+03  0.2556620297087573E+03  0.0000000000000000E+00 0.  1
   #pdf1pdf2  0.1051113739455790E-03
</event>
<event>
  5   1  0.2401515482509494E+02  0.9380303177347452E+02  0.7546888109483510E-02  0.1174986327754727E+00
   2 -1 0 0 502   0 -0.7386492574775083E+01 -0.8673197610108378E+01  0.1261737859143428E+04  0.1261737859143428E+04  0.1139230570785375E+02 0.  9
  21 -1 0 0 501 502  0.4280261056738755E+01 -0.5526834324202848E+01 -0.3144720690937751E+01  0.3144720690937751E+01  0.6990460096518762E+01 0.  9
 -13 +1 1 2   0   0 -0.4016698139448009E+02 -0.1808247181008165E+02  0.6780813765835190E+03  0.6795106441039075E+03  0.0000000000000000E+00 0. -1
  13 +1 1 2   0   0  0.3129226006550056E+02 -0.1734126093149960E+02  0.1465669625371892E+03  0.1508701407770241E+03  0.0000000000000000E+00 0.  1
   2 +1 1 2 501   0  0.5768489810943201E+01  0.2122370080727002E+02  0.4339447993317822E+03  0.4345017949534342E+03  0.0000000000000000E+00 0. -1
   #pdf1pdf2  0.7593828926365789E-05
</event>
<event>
  5   2  0.2401515482509494E+02  0.9230713002269620E+02  0.7546888109483510E-02  0.1177829834007372E+00
   1 -1 0 0 502   0 -0.7979583770231159E-01 -0.6270242355217387E+00  0.9548818647544970E+03  0.9548818647544970E+03  0.6320812982886256E+00 0.  9
  21 -1 0 0 501 502 -0.5605695216913550E+01  0.1938327521079531E+02 -0.2888477347884450E+01  0.2888477347884450E+01  0.2017759095537322E+02 0.  9
 -13 +1 1 2   0   0 -0.1850770776896425E+02  0.1719569952089287E+02  0.7596242555889601E+03  0.7600442335864117E+03  0.0000000000000000E+00 0. -1
  13 +1 1 2   0   0  0.2631469317012799E+02 -0.3263504191771752E+01  0.7630837606699242E+02  0.8078416796767318E+02  0.0000000000000000E+00 0.  1
   1 +1 1 2 501   0 -0.1349247645577960E+02  0.4824055646152452E+01  0.1160607557506601E+03  0.1169419405482965E+03  0.0000000000000000E+00 0. -1
   #pdf1pdf2  0.5730076623858701E-03
</event>
<event>
  5  26  0.2401515482509494E+02  0.9192007520528058E+02  0.7546888109483510E-02  0.1178575410623384E+00
   2 -1 0 0 501   0  0.1171510510185583E+00  0.1126770869594551E+01  0.5691176038296971E+03  0.5691176038296971E+03  0.1132844632472438E+01 0.  9
  -2 -1 0 0   0 502  0.2497764471110514E+01 -0.5553750997053241E+00 -0.7231018289742360E+01  0.7231018289742360E+01  0.2558763149358433E+01 0.  9
 -13 +1 1 2   0   0  0.1944807511593162E+02 -0.3247651429739844E+02  0.8280380506586320E+02  0.9104626153780021E+02  0.0000000000000000E+00 0.  1
  13 +1 1 2   0   0 -0.2306753888652129E+02  0.4280213588684708E+02  0.1945395644673252E+03  0.2005237550264155E+03  0.0000000000000000E+00 0. -1
  21 +1 1 2 501 502  0.6234379292718737E+01 -0.9754225819559409E+01  0.2845432160067664E+03  0.2847786055552238E+03  0.0000000000000000E+00 0.  1
   #pdf1pdf2  0.1178853256889917E-02
</event>
<event>
  5   1  0.2401515482509494E+02  0.9339637452721234E+02  0.7546888109483510E-02  0.1175753420341490E+00
   2 -1 0 0 502   0 -0.4706992532990972E+00  0.1533968723357956E-01  0.9953565992608031E+03  0.9953565992608031E+03  0.4709491406306542E+00 0.  9
  21 -1 0 0 501 502  0.6274392978618132E+01 -0.6343589507376803E+01 -0.3086309727611187E+01  0.3086309727611187E+01  0.8922395143022618E+01 0.  9
 -13 +1 1 2   0   0 -0.1605050376255552E+02 -0.3172596555000367E+02  0.5788639220776829E+03  0.5799548222441723E+03  0.0000000000000000E+00 0.  1
  13 +1 1 2   0   0  0.7767210814048212E+01  0.3985979587203771E+02  0.1970028915370805E+03  0.2011449034024006E+03  0.0000000000000000E+00 0. -1
   2 +1 1 2 501   0  0.1408698667382634E+02 -0.1446208014217726E+02  0.2164034759184286E+03  0.2173431833418413E+03  0.0000000000000000E+00 0. -1
   #pdf1pdf2  0.6606233341172830E-02
</event>
<event>
  5  26  0.2401515482509494E+02  0.9744650281740959E+02  0.7546888109483510E-02  0.1168302408886920E+00
   2 -1 0 0 501   0  0.1749735405828614E+01  0.1415831008809237E+01  0.8220356975381898E+03  0.8220356975381898E+03  0.2250811283940972E+01 0.  9
  -2 -1 0 0   0 502 -0.2358708472981184E+02  0.3756499243000477E+01 -0.7156373354045175E+01  0.7156373354045175E+01  0.2388434325272491E+02 0.  9
 -13 +1 1 2   0   0  0.3345048285765395E+02  0.6554448388688694E+01  0.2488095475359937E+03  0.2511336029729118E+03  0.0000000000000000E+00 0.  1
  13 +1 1 2   0   0 -0.6077865066482424E+02  0.3253519314347031E+02  0.4868752418571992E+03  0.4917317198463262E+03  0.0000000000000000E+00 0. -1
  21 +1 1 2 501 502  0.5490818483187073E+01 -0.3391731128034930E+02  0.7919453479095171E+02  0.8632674807299693E+02  0.0000000000000000E+00 0. -1
   #pdf1pdf2  0.3711442394541484E-05
</event>
<event>
  5  27  0.2401515482509494E+02  0.9291256535687202E+02  0.7546888109483510E-02  0.1176671764992809E+00
   1 -1 0 0 501   0  0.1417001236703285E+01  0.1566322259045763E+01  0.4388459678924708E+03  0.4388459678924708E+03  0.2112169009336342E+01 0.  9
  -1 -1 0 0   0 502 -0.2034978821966988E+01  0.2725778489308368E+00 -0.7456901783048262E+01  0.7456901783048262E+01  0.2053153060437022E+01 0.  9
 -13 +1 1 2   0   0 -0.5543800258214209E+02  0.3699380604879308E+01  0.1723953188288468E+03  0.1811275890118816E+03  0.0000000000000000E+00 0.  1
  13 +1 1 2   0   0  0.3724248106504423E+02  0.1052753321289096E+01  0.1407932813641048E+03  0.1456394821561367E+03  0.0000000000000000E+00 0. -1
  21 +1 1 2 501 502  0.1757754393183415E+02 -0.2913233818191804E+01  0.1182004659164709E+03  0.1195357985075007E+03  0.0000000000000000E+00 0.  1
   #pdf1pdf2  0.3227352727171058E-03
</event>
<event>
  5  27  0.2401515482509494E+02  0.9219260697589749E+02  0.7546888109483510E-02  0.1178050010789978E+00
   1 -1 0 0 501   0 -0.4952600820296280E+00  0.8500387551155233E-01  0.1018560173945063E+04  0.1018560173945063E+04  0.5025019479603808E+00 0.  9
  -1 -1 0 0   0 502 -0.1615975434017691E+01  0.2145932856965404E+01 -0.2879574990855220E+01  0.2879574990855220E+01  0.2686336618883115E+01 0.  9
 -13 +1 1 2   0   0  0.3712037940514546E+02 -0.1868466401690892E+01  0.6837734783642152E+03  0.6847828732146958E+03  0.0000000000000000E+00 0. -1
  13 +1 1 2   0   0 -0.2573714260937363E+02  0.5544456350437491E+01  0.7676802426433437E+02  0.8115707643432317E+02  0.0000000000000000E+00 0.  1
  21 +1 1 2 501 502 -0.1349447231181915E+02 -0.1445053216269643E+01  0.2551390963256579E+03  0.2554997992868989E+03  0.0000000000000000E+00 0.  1
   #pdf1pdf2  0.1051387654641026E-02
</event>
<event>
  5   1  0.2401515482509494E+02  0.9358496141783458E+02  0.7546888109483510E-02  0.1175397139099141E+00
   2 -1 0 0 502   0 -0.8080709307977354E+00 -0.2505207955310988E+00  0.1594072077362825E+04  0.1594072077362825E+04  0.8460137695060601E+00 0.  9
  21 -1 0 0 501 502 -0.1117313939702005E+01 -0.3852729409940827E+00 -0.2044007182852208E+01  0.2044007182852208E+01  0.1181873799910399E+01 0.  9
 -13 +1 1 2   0   0 -0.1210174685611802E+02 -0.4965016253251358E+02  0.4512801647619908E+03  0.4541644834463437E+03  0.0000000000000000E+00 0.  1
  13 +1 1 2   0   0  0.2814561347912877E+01  0.2929987981685768E+02  0.8101854494090362E+03  0.8107199683904335E+03  0.0000000000000000E+00 0. -1
   2 +1 1 2 501   0  0.7361800637705402E+01  0.1971448897913073E+02  0.3305624560089454E+03  0.3312316327088999E+03  0.0000000000000000E+00 0. -1
   #pdf1pdf2  0.1051345241522963E-01
</event>
<event>
  5   1  0.2401515482509494E+02  0.9310969719324203E+02  0.7546888109483510E-02  0.1176296824038747E+00
   2 -1 0 0 502   0 -0.3955634767349863E+01 -0.4610004499204975E+01  0.8144926576169968E+03  0.8144926576169968E+03  0.6074470174044574E+01 0.  9
  21 -1 0 0 501 502  0.7735573458183859E+01 -0.9392113648211543E+01 -0.4002865511305942E+01  0.4002865511305942E+01  0.1216761667327994E+02 0.  9
 -13 +1 1 2   0   0  0.4243581292714974E+02  0.9473749746900170E+01  0.5520681104248049E+03  0.5537777069376028E+03  0.0000000000000000E+00 0. -1
  13 +1 1 2   0   0 -0.2100028752538436E+02 -0.2998802192121186E+02  0.1352674052275614E+03  0.1401340945376721E+03  0.0000000000000000E+00 0.  1
   2 +1 1 2 501   0 -0.1765558671093138E+02  0.6512154026895171E+01  0.1231542764533245E+03  0.1245837216530278E+03  0.0000000000000000E+00 0. -1
   #pdf1pdf2  0.4816435157733399E-04
</event>
<event>
  5   2  0.2401515482509494E+02  0.9844660220764338E+02  0.7546888109483510E-02  0.1166524981340307E+00
   1 -1 0 0 502   0 -0.8570137321147647E+00 -0.4632910578371719E+00  0.1871481222823113E+04  0.1871481222823113E+04  0.9742233528843186E+00 0.  9
  21 -1 0 0 501 502 -0.2697992240674861E+00 -0.5696961744088652E+01 -0.3537874194607415E+01  0.3537874194607415E+01  0.5703346801213918E+01 0.  9
 -13 +1 1 2   0   0 -0.2772456067314214E+02 -0.5713436660254438E+02  0.1380112150068446E+04  0.1381572485929761E+04  0.0000000000000000E+00 0. -1
  13 +1 1 2   0   0  0.2359930771358545E+02  0.1399499774119737E+02  0.3371751878515267E+03  0.3382896607776374E+03  0.0000000000000000E+00 0.  1
   1 +1 1 2 501   0  0.2998440003374434E+01  0.3697911605942119E+02  0.1506560107085334E+03  0.1551569503103219E+03  0.0000000000000000E+00 0. -1
   #pdf1pdf2  0.5360382647936881E-03
</event>
<event>
  5  12  0.2401515482509494E+02  0.9240806519193154E+02  0.7546888109483510E-02  0.1177636076902860E+00
  -1 -1 0 0   0 501  0.1561162717171863E+01 -0.1422226673714883E+01  0.6263687377114147E+03  0.6263687377114147E+03  0.2111861203041889E+01 0.  9
  21 -1 0 0 501 502  0.5546777486336658E+01  0.2558984752492140E+01 -0.3610645965400628E+01  0.3610645965400628E+01  0.6108612235722486E+01 0.  9
 -13 +1 1 2   0   0 -0.8120063154366825E+01 -0.4338991804309596E+02  0.2697363427267784E+03  0.2733245598204368E+03  0.0000000000000000E+00 0.  1
  13 +1 1 2   0   0  0.1438018885355695E+02  0.2958532732591312E+02  0.2909886307431901E+03  0.2928420472648046E+03  0.0000000000000000E+00 0. -1
  -1 +1 1 2   0 502  0.8478145043183938E+00  0.1494134879596010E+02  0.6203311827604557E+02  0.6381277659157396E+02  0.0000000000000000E+00 0. -1
   #pdf1pdf2  0.1229260866100438E-03
</event>
<event>
  5  26  0.2401515482509494E+02  0.9205538855202207E+02  0.7546888109483510E-02  0.1178314292588160E+00
   2 -1 0 0 501   0  0.5044899352204991E+01  0.1106857953335943E+02  0.8726435926775608E+03  0.8726435926775608E+03  0.1216406438490777E+02 0.  9
  -2 -1 0 0   0 502 -0.1701010664133113E+02  0.1965429711132714E+01 -0.2990886239076090E+01  0.2990886239076090E+01  0.1712327777906031E+02 0.  9
 -13 +1 1 2   0   0  0.3249301488559907E+02  0.1355157183272845E+01  0.4454722422469993E+03  0.4466577560951073E+03  0.0000000000000000E+00 0. -1
  13 +1 1 2   0   0 -0.5033589183982116E+02  0.5271821624208330E+00  0.3043266139805031E+03  0.3084617770570297E+03  0.0000000000000000E+00 0.  1
  21 +1 1 2 501 502  0.5877669665095958E+01  0.1115166989879847E+02  0.1198538502109824E+03  0.1205149457644999E+03  0.0000000000000000E+00 0.  1
   #pdf1pdf2  0.1328825903830845E-06
</event>
<event>
  5   2  0.2401515482509494E+02  0.9180396307330213E+02  0.7546888109483510E-02  0.1178799876903868E+00
   1 -1 0 0 502   0  0.1797762555990772E+00 -0.6300138457797100E+00  0.2034197351026763E+04  0.2034197351026763E+04  0.6551617723519626E+00 0.  9
  21 -1 0 0 501 502 -0.7736927006299866E+01 -0.3627634790678037E+01 -0.1620154679920595E+01  0.1620154679920595E+01  0.8545160833790661E+01 0.  9
 -13 +1 1 2   0   0 -0.3040137878417520E+02  0.1376676145816663E+02  0.1780812917990946E+04  0.1781125603778816E+04  0.0000000000000000E+00 0. -1
  13 +1 1 2   0   0  0.2584377828255052E+02 -0.7841948946773710E+01  0.2027848510578167E+03  0.2045753965112675E+03  0.0000000000000000E+00 0.  1
   1 +1 1 2 501   0 -0.2999550249076104E+01 -0.1018246114785067E+02  0.4897942729807983E+02  0.5011650541660011E+02  0.0000000000000000E+00 0. -1
   #pdf1pdf2  0.5793620133842058E-03
</event>
<event>
  5   2  0.2401515482509494E+02  0.9269821887283969E+02  0.7546888109483510E-02  0.1177080631685565E+00
   1 -1 0 0 502   0 -0.2674170523850107E+01  0.5012184958014233E+00  0.6789153004014253E+03  0.6789153004014253E+03  0.2720736659649771E+01 0.  9
  21 -1 0 0 501 502  0.2638424893069275E-01 -0.1128833241681185E+02 -0.5577325022067522E+01  0.5577325022067522E+01  0.1128836325075682E+02 0.  9
 -13 +1 1 2   0   0 -0.5346690306837263E+02  0.1445778404133887E+02  0.2559974556226405E+03  0.2619206645692061E+03  0.0000000000000000E+00 0.  1
  13 +1 1 2   0   0  0.3450171010147481E+02 -0.2186640690782921E+02  0.1769006219549715E+03  0.1815553298557790E+03  0.0000000000000000E+00 0. -1
   1 +1 1 2 501   0  0.1631740669197841E+02 -0.3378491054520095E+01  0.2404398978017458E+03  0.2410166309985077E+03  0.0000000000000000E+00 0. -1
   #pdf1pdf2  0.1756412495091777E-03
</event>
<event>
  5  26  0.2401515482509494E+02  0.9230601152485640E+02  0.7546888109483510E-02  0.1177831982650954E+00
   2 -1 0 0 501   0 -0.1097759678728981E+01 -0.1210970661113837E+02  0.1178717386058997E+04  0.1178717386058997E+04  0.1215936143553976E+02 0.  9
  -2 -1 0 0   0 502 -0.9847850360932422E+00  0.1261958485968669E+01 -0.5322760501162636E+01  0.5322760501162636E+01  0.1600731328993565E+01 0.  9
 -13 +1 1 2   0   0 -0.2771450324761911E+02 -0.4299097133709743E+02  0.2329861461886628E+03  0.2385348226624666E+03  0.0000000000000000E+00 0. -1
  13 +1 1 2   0   0  0.1315446608127039E+02  0.3917345268962078E+02  0.1695226707463143E+03  0.1744864902233767E+03  0.0000000000000000E+00 0.  1
  21 +1 1 2 501 502  0.1247749245152650E+02 -0.7030229477693046E+01  0.7708858086228571E+03  0.7710188336743164E+03  0.0000000000000000E+00 0.  1
   #pdf1pdf2  0.3280837649016299E-05
</event>
<event>
  5  27  0.2401515482509494E+02  0.9969042286967186E+02  0.7546888109483510E-02  0.1164347518135005E+00
   1 -1 0 0 501   0 -0.6282511944717557E-01 -0.1970193226371124E+00  0.1470440254243847E+04  0.1470440254243847E+04  0.2067936389880947E+00 0.  9
  -1 -1 0 0   0 502  0.1898380450374594E+02 -0.1283135533841441E+01 -0.3679731650743686E+01  0.3679731650743686E+01  0.1902711933621722E+02 0.  9
 -13 +1 1 2   0   0 -0.1667229598660759E+01 -0.6149605086489527E+02  0.4190220709553773E+03  0.4235139193394306E+03  0.0000000000000000E+00 0.  1
  13 +1 1 2   0   0  0.3054230189305036E+02  0.2097990457703028E+02  0.4615596048703479E+03  0.4630445523370934E+03  0.0000000000000000E+00 0. -1
  21 +1 1 2 501 502 -0.9954092910090843E+01  0.3903599143138644E+02  0.5861788467673783E+03  0.5875615142180668E+03  0.0000000000000000E+00 0.  1
   #pdf1pdf2  0.1696903157125292E-04
</event>
<event>
  5  27  0.2401515482509494E+02  0.1006697861083106E+03  0.7546888109483510E-02  0.1162658065625817E+00
   1 -1 0 0 501   0 -0.1349187945400705E+01 -0.2708829184746853E+00  0.4771290586528361E+03  0.4771290586528361E+03  0.1376112519940117E+01 0.  9
  -1 -1 0 0   0 502  0.6992621799637157E+01 -0.1403326439473668E+01 -0.1089726777187863E+02  0.1089726777187863E+02  0.7132046321252171E+01 0.  9
 -13 +1 1 2   0   0  0.5029110012634700E+02  0.1520139375211095E+02  0.1354988368254368E+03  0.1453279460563980E+03  0.0000000000000000E+00 0. -1
  13 +1 1 2   0   0 -0.3626786057719963E+02  0.2494421124113734E+02  0.2124112128649941E+03  0.2169241681695876E+03  0.0000000000000000E+00 0.  1
  21 +1 1 2 501 502 -0.8379805694910921E+01 -0.4181981435119665E+02  0.1183217411905266E+03  0.1257742121987292E+03  0.0000000000000000E+00 0.  1
   #pdf1pdf2  0.6911678565578047E-04
</event>
<event>
  5  27  0.2401515482509494E+02  0.9199715822938705E+02  0.7546888109483510E-02  0.1178426599692350E+00
   1 -1 0 0 501   0 -0.9116883323425443E+00 -0.1544820670601134E+00  0.1164365719780972E+04  0.1164365719780972E+04  0.9246839051117387E+00 0.  9
  -1 -1 0 0   0 502  0.3227118936257719E+01 -0.4685655730310875E+01 -0.2297634604126245E+01  0.2297634604126245E+01  0.5689434616176574E+01 0.  9
 -13 +1 1 2   0   0 -0.2749979068189000E+02 -0.2338350604734431E+02  0.8909087806681445E+03  0.8916397716085874E+03  0.0000000000000000E+00 0. -1
  13 +1 1 2   0   0  0.1767942294492633E+02  0.1949819895350235E+02  0.9914615519706069E+02  0.1025802215266451E+03  0.0000000000000000E+00 0.  1
  21 +1 1 2 501 502  0.1213579834087884E+02 -0.9548307035290380E+00  0.1720131493116403E+03  0.1724433612498653E+03  0.0000000000000000E+00 0.  1
   #pdf1pdf2  0.1757729382269692E-03
</event>
<event>
  5  26  0.2401515482509494E+02  0.9943455707811064E+02  0.7546888109483510E-02  0.1164792500706213E+00
   2 -1 0 0 501   0 -0.2259162254323023E+01  0.2876121338736064E+01  0.1023533024615965E+04  0.1023533024615965E+04  0.3657306118783443E+01 0.  9
  -2 -1 0 0   0 502  0.5242843638174331E+01 -0.1309147711224443E+01 -0.4783064982428759E+01  0.4783064982428759E+01  0.5403820606214575E+01 0.  9
 -13 +1 1 2   0   0  0.3243457240268226E+02  0.1722912923642852E+02  0.1295004665263171E+03  0.1346076342995603E+03  0.0000000000000000E+00 0.  1
  13 +1 1 2   0   0  0.3779326214378749E+01 -0.3728843556441863E+02  0.6594183077781734E+03  0.6604825624999545E+03  0.0000000000000000E+00 0. -1
  21 +1 1 2 501 502 -0.3323021723320970E+02  0.2162627995550174E+02  0.2298311853290455E+03  0.2332258927988788E+03  0.0000000000000000E+00 0. -1
   #pdf1pdf2  0.3025269524072111E-04
</event>
<event>
  5   2  0.2401515482509494E+02  0.1081091874129100E+03  0.7546888109483510E-02  0.1150486092765695E+00
   1 -1 0 0 502   0 -0.7282002310509176E+01 -0.2970918928887229E+01  0.5648895653145129E+03  0.5648895653145129E+03  0.7864726119343344E+01 0.  9
  21 -1 0 0 501 502 -0.5954649847627900E+02 -0.1076661822731486E+02 -0.1180168166635602E+02  0.1180168166635602E+02  0.6051202813357231E+02 0.  9
 -13 +1 1 2   0   0  0.2476365449659755E+02 -0.2306642724750380E+02  0.1033714511202511E+03  0.1087701960865094E+03  0.0000000000000000E+00 0.  1
  13 +1 1 2   0   0 -0.4591458591708395E+02  0.4518789510575238E+02  0.3098885116786525E+03  0.3165137986477622E+03  0.0000000000000000E+00 0. -1
   1 +1 1 2 501   0 -0.4567756936630177E+02 -0.3585900501445066E+02  0.1398279208492532E+03  0.1514072522465972E+03  0.0000000000000000E+00 0. -1
   #pdf1pdf2  0.2153003061039829E-06
</event>
<event>
  5  26  0.2401515482509494E+02  0.9341881025912969E+02  0.7546888109483510E-02  0.1175710985056828E+00
   2 -1 0 0 501   0 -0.2629779593631587E+00 -0.1824758268380027E+00  0.1200990804159097E+04  0.1200990804159097E+04  0.3200856674251815E+00 0.  9
  -2 -1 0 0   0 502  0.1830802112845734E+00 -0.2318043517880688E+01 -0.6010827223105810E+01  0.6010827223105810E+01  0.2325262160392389E+01 0.  9
 -13 +1 1 2   0   0 -0.1227938678684296E+02 -0.4842430410612968E+02  0.1716552905816091E+03  0.1787770548831154E+03  0.0000000000000000E+00 0. -1
  13 +1 1 2   0   0  0.1247692134085050E+02  0.2563316322561188E+02  0.8447876363101523E+02  0.8915937487287343E+02  0.0000000000000000E+00 0.  1
  21 +1 1 2 501 502 -0.2774323020861268E+00  0.2029062153579911E+02  0.9388459227233673E+03  0.9390652016262140E+03  0.0000000000000000E+00 0. -1
   #pdf1pdf2  0.2698152989367385E-02
</event>
<event>
  5  26  0.2401515482509494E+02  0.9176334738033398E+02  0.7546888109483510E-02  0.1178878482299769E+00
   2 -1 0 0 501   0  0.3784084695962925E-01 -0.3484902663575159E+01  0.1192020187700771E+04  0.1192020187700771E+04  0.3485108105108342E+01 0.  9
  -2 -1 0 0   0 502 -0.1470921737401777E+02  0.3116758812259659E+02 -0.2544351050033739E+01  0.2544351050033739E+01  0.3446417886931197E+02 0.  9
 -13 +1 1 2   0   0 -0.3701344991145033E+02 -0.2243129368488547E+02  0.3945076732985125E+03  0.3968746183647058E+03  0.0000000000000000E+00 0.  1
  13 +1 1 2   0   0  0.2445882932836771E+02  0.4007687560366713E+02  0.7538810153067842E+03  0.7553416283578272E+03  0.0000000000000000E+00 0. -1
  21 +1 1 2 501 502 -0.2116755943975523E+01  0.1003710354023977E+02  0.4108714804544024E+02  0.4234829202827162E+02  0.0000000000000000E+00 0.  1
   #pdf1pdf2  0.5218120352730795E-06
</event>
<event>
  5  10  0.2401515482509494E+02  0.1223559787097889E+03  0.7546888109483510E-02  0.1129948615622770E+00
  21 -1 0 0 501 502 -0.2891974249779466E+01  0.1590835108797222E+01  0.1286832646373294E+04  0.1286832646373294E+04  0.3300647119091858E+01 0.  9
   5 -1 0 0 502   0  0.3736785281670664E+01  0.1310066145301182E+01 -0.8735158433996530E+01  0.8735158433996530E+01  0.3959777461723676E+01 0.  9
 -13 +1 1 2   0   0 -0.1191579388373818E+02 -0.1854639389285647E+02  0.1281065904933879E+03  0.1299894357174817E+03  0.0000000000000000E+00 0.  1
  13 +1 1 2   0   0 -0.8123703906889542E+01  0.1003113766530243E+03  0.7943633999937717E+03  0.8007131684322775E+03  0.0000000000000000E+00 0. -1
   5 +1 1 2 501   0  0.2088430882251892E+02 -0.7886408150606947E+02  0.3556274974521374E+03  0.3648652006575309E+03  0.0000000000000000E+00 0. -1
   #pdf1pdf2  0.3448887645352383E-05
</event>
<event>
  5   1  0.2401515482509494E+02  0.9204441310849491E+02  0.7546888109483510E-02  0.1178335453489904E+00
   2 -1 0 0 502   0 -0.1616266059554312E+02  0.6074429162529841E+01  0.1545959399876612E+04  0.1545959399876612E+04  0.1726644975602441E+02 0.  9
  21 -1 0 0 501 502 -0.9544972524199837E+01 -0.2680756380490675E+02 -0.2318941056926724E+01  0.2318941056926724E+01  0.2845614129923233E+02 0.  9
 -13 +1 1 2   0   0 -0.1371131169629550E+02 -0.2360423504407704E+02  0.8734644012793710E+02  0.9151262526816890E+02  0.0000000000000000E+00 0.  1
  13 +1 1 2   0   0 -0.2180980690964537E+02  0.1065452303312985E+02  0.1040461998972549E+04  0.1040745097439547E+04  0.0000000000000000E+00 0. -1
   2 +1 1 2 501   0  0.9813485486197905E+01 -0.7783422631429715E+01  0.4158320197191993E+03  0.4160206182258228E+03  0.0000000000000000E+00 0. -1
   #pdf1pdf2  0.5185205540038713E-07
</event>
<event>
  5  26  0.2401515482509494E+02  0.9200644871305320E+02  0.7546888109483510E-02  0.1178408675173864E+00
   2 -1 0 0 501   0 -0.3933864398257187E+01 -0.4286529172575654E+00  0.7534058129827604E+03  0.7534058129827604E+03  0.3957149533104454E+01 0.  9
  -2 -1 0 0   0 502  0.7207159410431337E+01  0.3840502169026311E+01 -0.1856183671507432E+01  0.1856183671507432E+01  0.8166553965882107E+01 0.  9
 -13 +1 1 2   0   0  0.1519595014610513E+02  0.2309002940060536E+02  0.2554291795207147E+03  0.2569204781818476E+03  0.0000000000000000E+00 0.  1
  13 +1 1 2   0   0 -0.2345934600221719E+02 -0.2377739340960883E+02  0.3035440359595696E+03  0.3053763041213766E+03  0.0000000000000000E+00 0. -1
  21 +1 1 2 501 502  0.1153669086828621E+02  0.4099213260772214E+01  0.1925764138309687E+03  0.1929652143510436E+03  0.0000000000000000E+00 0.  1
   #pdf1pdf2  0.2283231251125480E-04
</event>
<event>
  5  26  0.2401515482509494E+02  0.9419697822890272E+02  0.7546888109483510E-02  0.1174247354514252E+00
   2 -1 0 0 501   0 -0.9443967049808141E+01 -0.8071705428803041E+01  0.5494237891650547E+03  0.5494237891650547E+03  0.1242340300268934E+02 0.  9
  -2 -1 0 0   0 502 -0.3593390330631296E+01  0.9396921054146377E+01 -0.6757911290553871E+01  0.6757911290553871E+01  0.1006054567934235E+02 0.  9
 -13 +1 1 2   0   0 -0.3413728985290555E+02  0.2584953767135526E+02  0.1295731769334951E+03  0.1364652385663211E+03  0.0000000000000000E+00 0.  1
  13 +1 1 2   0   0  0.8952996354711445E+01 -0.4477857668960627E+02  0.3359531238644345E+03  0.3390424435204927E+03  0.0000000000000000E+00 0. -1
  21 +1 1 2 501 502  0.1214693611775466E+02  0.2025425464359434E+02  0.7713957707657119E+02  0.8067401836879480E+02  0.0000000000000000E+00 0.  1
   #pdf1pdf2  0.4950265177816886E-06
</event>
<event>
  5  27  0.2401515482509494E+02  0.9327343083781686E+02  0.7546888109483510E-02  0.1175986195154181E+00
   1 -1 0 0 501   0  0.4701657753172168E+00  0.4409123974609707E+00  0.1164933366676020E+04  0.1164933366676020E+04  0.6445615552563002E+00 0.  9
  -1 -1 0 0   0 502  0.6313950316173640E+00  0.1205931974086248E+01 -0.2760429573905013E+01  0.2760429573905013E+01  0.1361224306304676E+01 0.  9
 -13 +1 1 2   0   0  0.5269356900464331E+01 -0.5019615219653126E+02  0.5211177681576194E+03  0.5235562511393214E+03  0.0000000000000000E+00 0.  1
  13 +1 1 2   0   0  0.1161070311305657E+02  0.4019464716549093E+02  0.4962032232525846E+03  0.4979639111961751E+03  0.0000000000000000E+00 0. -1
  21 +1 1 2 501 502 -0.1577849920658632E+02  0.1164834940258755E+02  0.1448519456919112E+03  0.1461736339144286E+03  0.0000000000000000E+00 0.  1
   #pdf1pdf2  0.1531443683547604E-02
</event>
<event>
  5   2  0.2401515482509494E+02  0.9587040784142737E+02  0.7546888109483510E-02  0.1171152848587664E+00
   1 -1 0 0 502   0 -0.6936425908615108E+00 -0.1075407632137031E+01  0.1029240164152679E+04  0.1029240164152679E+04  0.1279703723178004E+01 0.  9
  21 -1 0 0 501 502 -0.7305013923461940E+01  0.3169844332104439E+01 -0.4196576420652770E+01  0.4196576420652770E+01  0.7963111295953828E+01 0.  9
 -13 +1 1 2   0   0  0.2967453346175349E+02 -0.8511192322994223E+01  0.1069834991779542E+03  0.1113484953975179E+03  0.0000000000000000E+00 0.  1
  13 +1 1 2   0   0 -0.4009438141587567E+02 -0.1888988101591486E+02  0.7593565594554110E+03  0.7606489146865828E+03  0.0000000000000000E+00 0. -1
   1 +1 1 2 501   0  0.2421191439798728E+01  0.2949551003887649E+02  0.1587035290986609E+03  0.1614393304892309E+03  0.0000000000000000E+00 0. -1
   #pdf1pdf2  0.9346995299391590E-03
</event>
<event>
  5  26  0.2401515482509494E+02  0.9186950740829228E+02  0.7546888109483510E-02  0.1178673121911756E+00
   2 -1 0 0 501   0 -0.7597660708225245E+00  0.2166518519701252E+01  0.5594344947005279E+03  0.5594344947005279E+03  0.2295876080841821E+01 0.  9
  -2 -1 0 0   0 502  0.3077029449252219E+01  0.3511974462849636E+01 -0.4664035772461788E+01  0.4664035772461788E+01  0.4669269199700677E+01 0.  9
 -13 +1 1 2   0   0  0.7436881603783938E+01  0.4312583188150281E+02  0.2694421772487004E+03  0.2729729500591229E+03  0.0000000000000000E+00 0.  1
  13 +1 1 2   0   0 -0.6276430052635119E+01 -0.2633966773895914E+02  0.6369926517410323E+02  0.6921537440861754E+02  0.0000000000000000E+00 0. -1
  21 +1 1 2 501 502  0.1156811827280875E+01 -0.1110767115999278E+02  0.2216290165052625E+03  0.2219102060052493E+03  0.0000000000000000E+00 0. -1
   #pdf1pdf2  0.1766003519933520E-03
</event>
<event>
  5  26  0.2401515482509494E+02  0.9413723066921288E+02  0.7546888109483510E-02  0.1174359169573372E+00
   2 -1 0 0 501   0  0.7435810089533104E+00 -0.5223006806710331E+00  0.1322541023660115E+04  0.1322541023660115E+04  0.9086862593356673E+00 0.  9
  -2 -1 0 0   0 502 -0.3040790907783680E+02  0.1253970215415720E+02 -0.3621828286165613E+01  0.3621828286165613E+01  0.3289202129089918E+02 0.  9
 -13 +1 1 2   0   0  0.3302765208690688E+02 -0.1657021151808509E+02  0.7867104962900478E+03  0.7875778073848076E+03  0.0000000000000000E+00 0.  1
  13 +1 1 2   0   0 -0.3969039344370650E+02  0.2440940912446727E+02  0.4668797002031693E+03  0.4691991059745565E+03  0.0000000000000000E+00 0. -1
  21 +1 1 2 501 502 -0.2300158671208387E+02  0.4178203867103985E+01  0.6532899888073212E+02  0.6938593858691611E+02  0.0000000000000000E+00 0. -1
   #pdf1pdf2  0.6308426399659117E-05
</event>
<event>
  5   1  0.2401515482509494E+02  0.1053415239516484E+03  0.7546888109483510E-02  0.1154883683120565E+00
   2 -1 0 0 502   0 -0.1950994187041344E+00 -0.1921972971832737E+00  0.1224479240424004E+04  0.1224479240424004E+04  0.2738678225408140E+00 0.  9
  21 -1 0 0 501 502  0.6710940484602530E+01 -0.2697016303270886E+02 -0.5189757808852104E+01  0.5189757808852104E+01  0.2779256044697525E+02 0.  9
 -13 +1 1 2   0   0  0.1550986986564255E+02  0.3520785763309226E+02  0.1397408362069812E+03  0.1449401621573110E+03  0.0000000000000000E+00 0.  1
  13 +1 1 2   0   0  0.1532895991876479E+02 -0.1557341177906842E+02  0.7970346997731853E+03  0.7973341964378319E+03  0.0000000000000000E+00 0. -1
   2 +1 1 2 501   0 -0.2432298871850895E+02 -0.4679680618391598E+02  0.2825139466349855E+03  0.2873946396377134E+03  0.0000000000000000E+00 0. -1
   #pdf1pdf2  0.5654586273398220E-03
</event>
<event>
  5   2  0.2401515482509494E+02  0.9281571678878537E+02  0.7546888109483510E-02  0.1176856350884351E+00
   1 -1 0 0 502   0  0.9698355529923122E-01  0.6540040845508741E+00  0.7662088236309946E+03  0.7662088236309946E+03  0.6611559215553514E+00 0.  9
  21 -1 0 0 501 502 -0.2500941063920406E+02  0.4131689718216977E+02 -0.4584208300824850E+01  0.4584208300824850E+01  0.4829654866843304E+02 0.  9
 -13 +1 1 2   0   0 -0.3170294517161731E+02 -0.2224688123323616E+02  0.1627916753847994E+03  0.1673353818884405E+03  0.0000000000000000E+00 0.  1
  13 +1 1 2   0   0  0.1122722023955216E+02  0.4749100343786966E+02  0.5380725053989646E+03  0.5402809148472320E+03  0.0000000000000000E+00 0. -1
   1 +1 1 2 501   0 -0.4436702151839675E+01  0.1672677906208714E+02  0.6076043454640580E+02  0.6317673519614701E+02  0.0000000000000000E+00 0. -1
   #pdf1pdf2  0.6496118213490993E-04
</event>
<event>
  5  26  0.2401515482509494E+02  0.9305224045886716E+02  0.7546888109483510E-02  0.1176405998234637E+00
   2 -1 0 0 501   0 -0.6231165915636111E+00  0.3371368891512689E+00  0.2284978403525155E+04  0.2284978403525155E+04  0.7084741129416424E+00 0.  9
  -2 -1 0 0   0 502 -0.1702595402015913E+02 -0.2276663941795886E+02 -0.2540852504832981E+01  0.2540852504832981E+01  0.2842891100066851E+02 0.  9
 -13 +1 1 2   0   0 -0.5811773023252573E+02 -0.1557531194817084E+02  0.4175206052933985E+03  0.4218337548777116E+03  0.0000000000000000E+00 0.  1
  13 +1 1 2   0   0  0.2590782350279368E+02  0.4609390304903020E+01  0.5416900287781331E+03  0.5423288200670230E+03  0.0000000000000000E+00 0. -1
  21 +1 1 2 501 502  0.1456083611800931E+02 -0.1146358088553977E+02  0.1323226916948790E+04  0.1323356681085253E+04  0.0000000000000000E+00 0. -1
   #pdf1pdf2  0.2113366525316050E-05
</event>
<event>
  5   1  0.2401515482509494E+02  0.9243244355363896E+02  0.7546888109483510E-02  0.1177589321261011E+00
   2 -1 0 0 502   0  0.6455946266613784E+01 -0.3230548419249437E+00  0.1507981588429125E+04  0.1507981588429125E+04  0.6464024027515339E+01 0.  9
  21 -1 0 0 501 502  0.1327788300194830E+02 -0.8009642611669285E+01 -0.3387916025822251E+01  0.3387916025822251E+01  0.1550666152916533E+02 0.  9
 -13 +1 1 2   0   0 -0.3626974380581730E+02  0.1886399941686051E+02  0.4643922116705347E+03  0.4661882356409154E+03  0.0000000000000000E+00 0.  1
  13 +1 1 2   0   0  0.6275564472788584E+02 -0.1367344539595459E+02  0.1002604698071406E+04  0.1004659850222484E+04  0.0000000000000000E+00 0. -1
   2 +1 1 2 501   0 -0.6752071653506462E+01 -0.1352325147450015E+02  0.3759676266136171E+02  0.4052141859154758E+02  0.0000000000000000E+00 0. -1
   #pdf1pdf2  0.6842042911122134E-05
</event>
<event>
  5   2  0.2401515482509494E+02  0.1162659751054465E+03  0.7546888109483510E-02  0.1138328488136098E+00
   1 -1 0 0 502   0  0.2475552287849034E+00  0.2725492982554598E+00  0.8550995767996318E+03  0.8550995767996318E+03  0.3681938501364322E+00 0.  9
  21 -1 0 0 501 502 -0.1666663423446934E+00 -0.4145594040560516E+01 -0.1099906264267112E+02  0.1099906264267112E+02  0.4148942951982037E+01 0.  9
 -13 +1 1 2   0   0 -0.6955987979752962E+02 -0.1372101072951928E+02  0.5083157986808060E+03  0.5132365869668608E+03  0.0000000000000000E+00 0. -1
  13 +1 1 2   0   0  0.2331264037907047E+01  0.3576938053738801E+02  0.1274451147011646E+03  0.1323901077771142E+03  0.0000000000000000E+00 0.  1
   1 +1 1 2 501   0  0.6730950464606278E+02 -0.2592141455017379E+02  0.2083396007749900E+03  0.2204719446983278E+03  0.0000000000000000E+00 0. -1
   #pdf1pdf2  0.3612354034399299E-02
</event>
<event>
  5   1  0.2401515482509494E+02  0.1028495663723341E+03  0.7546888109483510E-02  0.1158973779939775E+00
   2 -1 0 0 502   0  0.2561530816854262E+01  0.1843856231368976E-02  0.8965713117869934E+03  0.8965713117869934E+03  0.2561531480481914E+01 0.  9
  21 -1 0 0 501 502  0.3242838483471758E+01  0.3229619260594782E+02 -0.5851406628388204E+01  0.5851406628388204E+01  0.3245858989959921E+02 0.  9
 -13 +1 1 2   0   0  0.6083733161282710E+02 -0.6636881040602511E+01  0.5062373611229442E+03  0.5099230284115814E+03  0.0000000000000000E+00 0.  1
  13 +1 1 2   0   0 -0.2398924435797595E+02  0.2892816297426728E+01  0.6225142755389243E+02  0.6677643643902283E+02  0.0000000000000000E+00 0. -1
   2 +1 1 2 501   0 -0.3104371795452513E+02  0.3604210120535497E+02  0.3222311164817686E+03  0.3257232535647774E+03  0.0000000000000000E+00 0.  1
   #pdf1pdf2  0.4223617509615346E-04
</event>
<event>
  5   2  0.2401515482509494E+02  0.9312070830493202E+02  0.7546888109483510E-02  0.1176275911772724E+00
   1 -1 0 0 502   0 -0.2103422730558886E+01 -0.9164013015386617E+00  0.6131200649740555E+03  0.6131200649740555E+03  0.2294379769980016E+01 0.  9
  21 -1 0 0 501 502  0.4126684614490038E+01 -0.2532010020280761E+02 -0.4934565371965815E+01  0.4934565371965815E+01  0.2565418094946098E+02 0.  9
 -13 +1 1 2   0   0  0.6299795000741231E+01  0.2656136434073891E+02  0.4438288106342142E+03  0.4446675237092023E+03  0.0000000000000000E+00 0. -1
  13 +1 1 2   0   0  0.6110568568493617E+00 -0.3456904360606983E+02  0.8386192671680107E+02  0.9070950842648621E+02  0.0000000000000000E+00 0.  1
   1 +1 1 2 501   0 -0.4887589973659440E+01 -0.1822882223901535E+02  0.8049476225107441E+02  0.8267759821033283E+02  0.0000000000000000E+00 0. -1
   #pdf1pdf2  0.5799608101118540E-04
</event>
<event>
  5  26  0.2401515482509494E+02  0.9382798487038869E+02  0.7546888109483510E-02  0.1174939399684167E+00
   2 -1 0 0 501   0 -0.2238634188426234E+00 -0.1713526275227898E+00  0.1285882807297557E+04  0.1285882807297557E+04  0.2819158620136011E+00 0.  9
  -2 -1 0 0   0 502  0.1011399815177472E+00  0.1055622944988960E+01 -0.2666820167717363E+01  0.2666820167717363E+01  0.1060457023103046E+01 0.  9
 -13 +1 1 2   0   0 -0.1511292672168990E+02  0.3661280588039401E+02  0.6249006295721819E+03  0.6261546893126648E+03  0.0000000000000000E+00 0. -1
  13 +1 1 2   0   0  0.3682103721878451E+02 -0.3229085970187166E+02  0.3688369229159975E+03  0.3720741379191714E+03  0.0000000000000000E+00 0.  1
  21 +1 1 2 501 502 -0.2183083393441949E+02 -0.3437675861056183E+01  0.2894784346416603E+03  0.2903208002334381E+03  0.0000000000000000E+00 0.  1
   #pdf1pdf2  0.6576540324845258E-02
</event>
<event>
  5  26  0.2401515482509494E+02  0.9173626398711883E+02  0.7546888109483510E-02  0.1178930923328898E+00
   2 -1 0 0 501   0  0.1059214789536666E+01  0.2676184618721114E+01  0.1208003124992677E+04  0.1208003124992677E+04  0.2878176520620770E+01 0.  9
  -2 -1 0 0   0 502 -0.1345215678263972E+02 -0.2069997312559531E+01 -0.2053981325909433E+01  0.2053981325909433E+01  0.1361048900586322E+02 0.  9
 -13 +1 1 2   0   0  0.3177180211520615E+02 -0.8382457867684561E+01  0.8161441698097680E+03  0.8168053739563829E+03  0.0000000000000000E+00 0. -1
  13 +1 1 2   0   0 -0.3574134946009752E+02  0.1440166038487562E+02  0.2363650733664521E+03  0.2394854897287065E+03  0.0000000000000000E+00 0.  1
  21 +1 1 2 501 502 -0.8423394648211683E+01 -0.5413015211029470E+01  0.1534399004905472E+03  0.1537662426334967E+03  0.0000000000000000E+00 0.  1
   #pdf1pdf2  0.9200094484906178E-05
</event>
<event>
  5  26  0.2401515482509494E+02  0.9430699207365485E+02  0.7546888109483510E-02  0.1174041711056824E+00
   2 -1 0 0 501   0  0.4582596226163136E+00  0.3216690238783014E+00  0.8204846439749391E+03  0.8204846439749391E+03  0.5598864551346687E+00 0.  9
  -2 -1 0 0   0 502 -0.5362061840269396E+01 -0.1563689654516872E+01 -0.4262828036127768E+01  0.4262828036127768E+01  0.5585412474877422E+01 0.  9
 -13 +1 1 2   0   0 -0.2310234861613906E+02 -0.5988303748615451E+01  0.5841035071235668E+03  0.5845908700342642E+03  0.0000000000000000E+00 0. -1
  13 +1 1 2   0   0  0.2138163674851103E+02 -0.1909462438496807E+02  0.6152062271570833E+02  0.6787168842585855E+02  0.0000000000000000E+00 0.  1
  21 +1 1 2 501 502 -0.3183090350025049E+01  0.2384090750294495E+02  0.1705976860995362E+03  0.1722849135509441E+03  0.0000000000000000E+00 0. -1
   #pdf1pdf2  0.7293904411172695E-03
</event>
<event>
  5   2  0.2401515482509494E+02  0.9372290292833253E+02  0.7546888109483510E-02  0.1175137132789209E+00
   1 -1 0 0 502   0  0.5187834692968726E+00  0.9109230525127228E+00  0.8402619134988805E+03  0.8402619134988805E+03  0.1048292466640296E+01 0.  9
  21 -1 0 0 501 502  0.8112627225804520E+01 -0.4113544279319941E+01 -0.5124285394011172E+01  0.5124285394011172E+01  0.9095931345540738E+01 0.  9
 -13 +1 1 2   0   0  0.3817992960489131E+02 -0.3256364623603045E+02  0.5621497035240703E+03  0.5643849637020994E+03  0.0000000000000000E+00 0. -1
  13 +1 1 2   0   0 -0.3735051778950803E+02  0.9166383948919105E+01  0.2262154652267104E+03  0.2294613703471248E+03  0.0000000000000000E+00 0.  1
   1 +1 1 2 501   0  0.7801998879718119E+01  0.2019464106030413E+02  0.4677245935408860E+02  0.5153986484366751E+02  0.0000000000000000E+00 0. -1
   #pdf1pdf2  0.1196736451252722E-02
</event>
<event>
  5   2  0.2401515482509494E+02  0.9193244008156756E+02  0.7546888109483510E-02  0.1178551528888423E+00
   1 -1 0 0 502   0 -0.3402648983395788E+00 -0.7845186706215208E-02  0.5183903349898253E+03  0.5183903349898253E+03  0.3403553260880448E+00 0.  9
  21 -1 0 0 501 502 -0.7161643279185893E+01  0.1924611093740836E+02 -0.5257267693181113E+01  0.5257267693181113E+01  0.2053538216526146E+02 0.  9
 -13 +1 1 2   0   0 -0.3855431737964126E+02  0.3065906623101591E+02  0.1974085359772461E+03  0.2034614061866466E+03  0.0000000000000000E+00 0.  1
  13 +1 1 2   0   0  0.2795833425606726E+02 -0.2267746163445918E+02  0.2859125192809321E+03  0.2881699227923098E+03  0.0000000000000000E+00 0. -1
   1 +1 1 2 501   0  0.3094074946048534E+01  0.1125666115414543E+02  0.2981201203846600E+02  0.3201627370405016E+02  0.0000000000000000E+00 0. -1
   #pdf1pdf2  0.7433130068844116E-03
</event>
<event>
  5  26  0.2401515482509494E+02  0.9256027955973113E+02  0.7546888109483510E-02  0.1177344406580901E+00
   2 -1 0 0 501   0  0.6810169447184619E-01  0.4125778522022165E+00  0.1177409233476161E+04  0.1177409233476161E+04  0.4181606448695653E+00 0.  9
  -2 -1 0 0   0 502  0.3523640247290208E+02 -0.3429320027459094E+02 -0.6671270854603249E+01  0.6671270854603249E+01  0.4916937709901910E+02 0.  9
 -13 +1 1 2   0   0 -0.6270575493838008E+01 -0.6443565074320250E+02  0.2487001437635657E+03  0.2569883941187659E+03  0.0000000000000000E+00 0.  1
  13 +1 1 2   0   0  0.2744064395140806E+02  0.2332071701281760E+02  0.1300147219265368E+03  0.1349098688017098E+03  0.0000000000000000E+00 0. -1
  21 +1 1 2 501 502  0.1413443570980387E+02  0.7234311307996173E+01  0.7920230969314557E+03  0.7921822414102892E+03  0.0000000000000000E+00 0. -1
   #pdf1pdf2  0.2815025450934076E-05
</event>
<event>
  5   2  0.2401515482509494E+02  0.1152403939681512E+03  0.7546888109483510E-02  0.1139795759420061E+00
   1 -1 0 0 502   0  0.8394942315396084E+00  0.1264469446229812E+01  0.1374380784012363E+04  0.1374380784012363E+04  0.1517772560444089E+01 0.  9
  21 -1 0 0 501 502 -0.1231676292462006E+02 -0.5381403550937557E+01 -0.1016855083351520E+02  0.1016855083351520E+02  0.1344106220204857E+02 0.  9
 -13 +1 1 2   0   0 -0.9850106245169540E+02 -0.7622410615492258E+01  0.1067836916212541E+04  0.1072397426364878E+04  0.0000000000000000E+00 0. -1
  13 +1 1 2   0   0  0.1793892833311189E+02 -0.1036326358465437E+02  0.1273997384665313E+03  0.1290732185358610E+03  0.0000000000000000E+00 0.  1
   1 +1 1 2 501   0  0.6908486542550307E+02  0.1386874009543889E+02  0.1689755784997753E+03  0.1830786899451393E+03  0.0000000000000000E+00 0. -1
   #pdf1pdf2  0.9966657611480658E-04
</event>
<event>
  5  26  0.2401515482509494E+02  0.9569884270538903E+02  0.7546888109483510E-02  0.1171466838661624E+00
   2 -1 0 0 501   0  0.3092677333117854E+01 -0.1075408028406438E+01  0.1694231447223516E+04  0.1694231447223516E+04  0.3274317564675421E+01 0.  9
  -2 -1 0 0   0 502 -0.4222655267335428E+01 -0.1665532240068864E+01 -0.2965179281662808E+01  0.2965179281662808E+01  0.4539252708262059E+01 0.  9
 -13 +1 1 2   0   0  0.1957598393145022E+02 -0.6023661173062361E+02  0.5530101658665882E+03  0.5566254684179136E+03  0.0000000000000000E+00 0.  1
  13 +1 1 2   0   0 -0.1344968195394825E+02  0.2938291496703443E+02  0.2858573612173961E+03  0.2876780850165602E+03  0.0000000000000000E+00 0. -1
  21 +1 1 2 501 502 -0.7256279911719549E+01  0.2811275649511388E+02  0.8523987408578693E+03  0.8528930730707054E+03  0.0000000000000000E+00 0. -1
   #pdf1pdf2  0.1666869728997994E-04
</event>
<event>
  5   1  0.2401515482509494E+02  0.9318171520812254E+02  0.7546888109483510E-02  0.1176160106309139E+00
   2 -1 0 0 502   0 -0.4321159463936562E+01 -0.7160818370475806E+01  0.1238042881526247E+04  0.1238042881526247E+04  0.8363596047616856E+01 0.  9
  21 -1 0 0 501 502  0.5710565619449411E+01 -0.7501607495727391E+01 -0.2977288703318580E+01  0.2977288703318580E+01  0.9427866922798126E+01 0.  9
 -13 +1 1 2   0   0  0.3174576434619131E+01  0.2613609015520074E+02  0.1038961805369762E+03  0.1071801729533591E+03  0.0000000000000000E+00 0.  1
  13 +1 1 2   0   0  0.1402550341547388E+02 -0.2995569225583588E+02  0.1046692003695450E+04  0.1047214499920899E+04  0.0000000000000000E+00 0. -1
   2 +1 1 2 501   0 -0.1581067369458016E+02 -0.1084282376556805E+02  0.8447740859050259E+02  0.8662549735530744E+02  0.0000000000000000E+00 0. -1
   #pdf1pdf2  0.1514734448238530E-04
</event>
<event>
  5   1  0.3526555457200566E+02  0.9186420054378362E+02  0.7546888109483510E-02  0.1178683380356208E+00
   2 -1 0 0 502   0 -0.4454458100613050E+01  0.1947107382728200E+00  0.4502963347610504E+03  0.4502963347610504E+03  0.4458711612306404E+01 0.  9
  21 -1 0 0 501 502 -0.3003111164916701E+00  0.1411852663536743E+02 -0.4648485125716174E+01  0.4648485125716174E+01  0.1412172018984472E+02 0.  9
 -13 +1 1 2   0   0 -0.3427444964568052E+02  0.1202759457484850E+02  0.3478279081416286E+03  0.3497193941032617E+03  0.0000000000000000E+00 0. -1
  13 +1 1 2   0   0  0.2626779015968368E+02 -0.8352436538550240E+01  0.6636843353823514E+02  0.7186465728244181E+02  0.0000000000000000E+00 0.  1
   2 +1 1 2 501   0  0.3251890268892120E+01  0.1063807933734199E+02  0.3145150795547056E+02  0.3336076850106313E+02  0.0000000000000000E+00 0. -1
   #pdf1pdf2  0.1080226958069983E-03
</event>
<event>
  5   1  0.2401515482509494E+02  0.1004120259037056E+03  0.7546888109483510E-02  0.1163100616110239E+00
   2 -1 0 0 502   0  0.3931178308633957E+01 -0.4649698401177268E+01  0.1670265149659075E+04  0.1670265149659075E+04  0.6088830603341218E+01 0.  9
  21 -1 0 0 501 502  0.3697144461928026E+02 -0.3241651451361870E+02 -0.5360571643031673E+01  0.5360571643031673E+01  0.4917029723774465E+02 0.  9
 -13 +1 1 2   0   0 -0.4199154930359015E+01 -0.4328262870167389E+02  0.3928068837940437E+03  0.3952066128058126E+03  0.0000000000000000E+00 0.  1
  13 +1 1 2   0   0  0.8512601712708374E+02 -0.6642332122597765E+01  0.5047731770993177E+03  0.5119438638043107E+03  0.0000000000000000E+00 0. -1
   2 +1 1 2 501   0 -0.4002423926881050E+02  0.1285874790947568E+02  0.7673245171226818E+03  0.7684752446919831E+03  0.0000000000000000E+00 0. -1
   #pdf1pdf2  0.3232440593445464E-06
</event>
<event>
  5  17  0.2401515482509494E+02  0.1181465064799876E+03  0.7546888109483510E-02  0.1135681115560856E+00
  21 -1 0 0 501 502 -0.5267570557457055E+01  0.2535890940927123E+01  0.1242348327900214E+04  0.1242348327900214E+04  0.5846198973868806E+01 0.  9
  -1 -1 0 0   0 501  0.1114877766050747E+02  0.2068050153798058E+02 -0.8682739685525164E+01  0.8682739685525164E+01  0.2349422029320930E+02 0.  9
 -13 +1 1 2   0   0  0.1405631139698679E+02  0.5578392783463212E+02  0.3325543584662557E+03  0.3374934485729336E+03  0.0000000000000000E+00 0.  1
  13 +1 1 2   0   0 -0.6477935261611748E+02  0.1682141326708597E+02  0.5752035952529786E+03  0.5790841911687953E+03  0.0000000000000000E+00 0. -1
  -1 +1 1 2   0 502  0.5660424832218110E+02 -0.4938894862281038E+02  0.3259076344954548E+03  0.3344534278440104E+03  0.0000000000000000E+00 0.  1
   #pdf1pdf2  0.7676199997705229E-07
</event>
<event>
  5  23  0.2401515482509494E+02  0.9449459354089898E+02  0.7546888109483510E-02  0.1173691760820082E+00
  -3 -1 0 0   0 502 -0.7039840645959575E+00  0.8084264662968833E+01  0.3766807407044232E+03  0.3766807407044232E+03  0.8114858514116658E+01 0.  9
   3 -1 0 0 501   0  0.5859509070219423E+01 -0.3625524365034263E+01 -0.1132526630112071E+02  0.1132526630112071E+02  0.6890447987282162E+01 0.  9
 -13 +1 1 2   0   0  0.5142677111193616E+02  0.2078852166321239E+02  0.1304889403223043E+03  0.1417894176812192E+03  0.0000000000000000E+00 0. -1
  13 +1 1 2   0   0 -0.3062674884910780E+02 -0.3554410141020828E+02  0.1231448413300961E+03  0.1317802444842930E+03  0.0000000000000000E+00 0.  1
  21 +1 1 2 501 502 -0.1564449725720489E+02  0.1921432004493046E+02  0.1117216927509021E+03  0.1144363448400318E+03  0.0000000000000000E+00 0. -1
   #pdf1pdf2  0.3334640868211367E-06
</event>
<event>
  5   1  0.2401515482509494E+02  0.9670437701535458E+02  0.7546888109483510E-02  0.1169636986328882E+00
   2 -1 0 0 502   0 -0.2689953678984768E+01 -0.3252105640590450E+01  0.1229080852793369E+04  0.1229080852793369E+04  0.4220431481808927E+01 0.  9
  21 -1 0 0 501 502 -0.3357531783485140E+01 -0.9870445118435633E+01 -0.3969491872752267E+01  0.3969491872752267E+01  0.1042586718278929E+02 0.  9
 -13 +1 1 2   0   0  0.3206317179347593E+01  0.3875743813243362E+02  0.1240839921231044E+03  0.1300355973633783E+03  0.0000000000000000E+00 0.  1
  13 +1 1 2   0   0 -0.2435719001512530E+02 -0.2344873136493357E+02  0.6045164643235290E+03  0.6054612054841155E+03  0.0000000000000000E+00 0. -1
   2 +1 1 2 501   0  0.1510338737330780E+02 -0.2843125752652613E+02  0.4965109044739834E+03  0.4975535418186277E+03  0.0000000000000000E+00 0. -1
   #pdf1pdf2  0.8707664775462295E-04
</event>
<event>
  5  26  0.2401515482509494E+02  0.9454925777607123E+02  0.7546888109483510E-02  0.1173589961834536E+00
   2 -1 0 0 501   0  0.1250209374281205E+00  0.1069949777995313E+01  0.7809010480391330E+03  0.7809010480391330E+03  0.1077229205985256E+01 0.  9
  -2 -1 0 0   0 502 -0.8213361566068665E+00  0.6301338718854305E+00 -0.3538567617877403E+01  0.3538567617877403E+01  0.1035210982673128E+01 0.  9
 -13 +1 1 2   0   0 -0.2906434471796695E+02  0.1926956355661106E+01  0.2658279885804390E+03  0.2674190883377689E+03  0.0000000000000000E+00 0. -1
  13 +1 1 2   0   0  0.1697589381383363E+02  0.2201033870441117E+02  0.7868251537617408E+02  0.8344803297012655E+02  0.0000000000000000E+00 0.  1
  21 +1 1 2 501 502  0.1139213568495457E+02 -0.2223721141019153E+02  0.4328519764646425E+03  0.4335724943491151E+03  0.0000000000000000E+00 0. -1
   #pdf1pdf2  0.3455814784155646E-02
</event>
<event>
  5  26  0.2401515482509494E+02  0.9312412922072826E+02  0.7546888109483510E-02  0.1176269415440280E+00
   2 -1 0 0 501   0 -0.2612175432899117E+00 -0.3480087614637984E+01  0.1560917116172458E+04  0.1560917116172458E+04  0.3489877420552062E+01 0.  9
  -2 -1 0 0   0 502  0.6200493318871287E+01 -0.5719495913498990E+01 -0.1539401202659898E+01  0.1539401202659898E+01  0.8435564646299566E+01 0.  9
 -13 +1 1 2   0   0  0.3883391240202860E+02  0.2059169122859026E+02  0.6510934976126566E+03  0.6525755382586636E+03  0.0000000000000000E+00 0. -1
  13 +1 1 2   0   0 -0.2832568204245935E+02 -0.1146260110344962E+02  0.3679402274493151E+03  0.3692069155130779E+03  0.0000000000000000E+00 0.  1
  21 +1 1 2 501 502 -0.4568954583987879E+01 -0.1832867365327761E+02  0.5403439899078265E+03  0.5406740636033767E+03  0.0000000000000000E+00 0.  1
   #pdf1pdf2  0.8078015757094622E-05
</event>
<event>
  5   2  0.2401515482509494E+02  0.9179957301727991E+02  0.7546888109483510E-02  0.1178808370984789E+00
   1 -1 0 0 502   0  0.8304846826224045E-01  0.5053654374247014E+01  0.1215174172355274E+04  0.1215174172355274E+04  0.5054336710432604E+01 0.  9
  21 -1 0 0 501 502 -0.9926087182835875E+01 -0.1451764967677197E+01 -0.2823376154531732E+01  0.2823376154531732E+01  0.1003169119753162E+02 0.  9
 -13 +1 1 2   0   0  0.3900618017029086E+02 -0.2871870277292896E+02  0.3419805139885606E+03  0.3453938591352156E+03  0.0000000000000000E+00 0.  1
  13 +1 1 2   0   0 -0.4470643957412472E+02  0.2258862596000261E+02  0.7820304170501895E+03  0.7836328763865444E+03  0.0000000000000000E+00 0. -1
   1 +1 1 2 501   0 -0.4142779310739777E+01  0.9731966219496176E+01  0.8833986516199207E+02  0.8897081298804596E+02  0.0000000000000000E+00 0. -1
   #pdf1pdf2  0.2350084637577753E-04
</event>
<event>
  5  27  0.2401515482509494E+02  0.9176090019776133E+02  0.7546888109483510E-02  0.1178883219897668E+00
   1 -1 0 0 501   0  0.8977194443011531E+00 -0.2204947871121710E+01  0.7368233833945641E+03  0.7368233833945641E+03  0.2380692192418107E+01 0.  9
  -1 -1 0 0   0 502  0.3075809359473702E+01  0.4641061030589127E+00 -0.3589400340450605E+01  0.3589400340450605E+01  0.3110626575261414E+01 0.  9
 -13 +1 1 2   0   0  0.1254963329493360E+02 -0.3825118347985189E+02  0.1851271288497489E+03  0.1894536887199563E+03  0.0000000000000000E+00 0.  1
  13 +1 1 2   0   0 -0.3333529899142981E+01  0.4530183746112930E+02  0.4220843769406086E+03  0.4245216015190333E+03  0.0000000000000000E+00 0. -1
  21 +1 1 2 501 502 -0.5242574592015767E+01 -0.8791495749340207E+01  0.1260224772637560E+03  0.1264374934960252E+03  0.0000000000000000E+00 0.  1
   #pdf1pdf2  0.1327465657860090E-03
</event>
<event>
  5  28  0.2401515482509494E+02  0.9236591743050434E+02  0.7546888109483510E-02  0.1177716950857015E+00
   3 -1 0 0 501   0  0.2306652205477928E+00 -0.1901091137862391E+00  0.4912411075888975E+03  0.4912411075888975E+03  0.2989112227985947E+00 0.  9
  -3 -1 0 0   0 502  0.8045052225777798E+01  0.5397785330525284E+00 -0.6012188755515240E+01  0.6012188755515240E+01  0.8063139970274399E+01 0.  9
 -13 +1 1 2   0   0 -0.4143515374007459E+02 -0.7417848532706215E+01  0.9818734109822302E+02  0.1068300069936185E+03  0.0000000000000000E+00 0.  1
  13 +1 1 2   0   0  0.3513852355287082E+02  0.9722401065183425E+01  0.2872145212942373E+03  0.2895192949739721E+03  0.0000000000000000E+00 0. -1
  21 +1 1 2 501 502  0.1457234763352936E+02 -0.1954883113210920E+01  0.9982705644092198E+02  0.1009039943768222E+03  0.0000000000000000E+00 0. -1
   #pdf1pdf2  0.2642137095651867E-04
</event>
<event>
  5  27  0.2401515482509494E+02  0.9215861419399377E+02  0.7546888109483510E-02  0.1178115432672528E+00
   1 -1 0 0 501   0  0.2047280254258154E+00  0.4109794913979546E+00  0.7989893512416492E+03  0.7989893512416492E+03  0.4591488938726464E+00 0.  9
  -1 -1 0 0   0 502 -0.2167106400652833E+01  0.3275161629615785E+01 -0.5183881579968157E+01  0.5183881579968157E+01  0.3927217061973784E+01 0.  9
 -13 +1 1 2   0   0  0.4768151762379525E+02  0.1777757556101106E+02  0.2078405768077379E+03  0.2139796127753973E+03  0.0000000000000000E+00 0.  1
  13 +1 1 2   0   0 -0.4080663442036128E+02 -0.4100180329140452E+01  0.2086187448455153E+03  0.2126117908121906E+03  0.0000000000000000E+00 0. -1
  21 +1 1 2 501 502 -0.8837261578660984E+01 -0.9991254110856868E+01  0.3773461480084279E+03  0.3775818292340294E+03  0.0000000000000000E+00 0.  1
   #pdf1pdf2  0.6448094681791058E-03
</event>
<event>
  5  26  0.2401515482509494E+02  0.9562767571208887E+02  0.7546888109483510E-02  0.1171597301614941E+00
   2 -1 0 0 501   0 -0.1180436901435474E+01 -0.2440489034221064E+01  0.1255954522082971E+04  0.1255954522082971E+04  0.2710981004069162E+01 0.  9
  -2 -1 0 0   0 502 -0.4995647976470703E+00 -0.4378864033404138E+01 -0.3230363955210517E+01  0.3230363955210517E+01  0.4407268452237567E+01 0.  9
 -13 +1 1 2   0   0 -0.3973614367006324E+02 -0.1851501263387895E+02  0.8144242366193326E+03  0.8156032148045907E+03  0.0000000000000000E+00 0. -1
  13 +1 1 2   0   0  0.1732152970350328E+02 -0.8290345461610379E+01  0.4138411299770053E+02  0.4562247283684474E+02  0.0000000000000000E+00 0.  1
  21 +1 1 2 501 502  0.2073461226747742E+02  0.1998600502786412E+02  0.3969158085107271E+03  0.3979591983967460E+03  0.0000000000000000E+00 0.  1
   #pdf1pdf2  0.7312834076875208E-04
</event>
<event>
  5   1  0.2401515482509494E+02  0.9453687569314059E+02  0.7546888109483510E-02  0.1173613013728093E+00
   2 -1 0 0 502   0 -0.6447797263259584E+00 -0.3064004576711107E+00  0.1178298583788560E+04  0.1178298583788560E+04  0.7138782360753435E+00 0.  9
  21 -1 0 0 501 502  0.1417725018129493E+02 -0.2190756977056827E+02 -0.2988670480853082E+01  0.2988670480853082E+01  0.2609475111886189E+02 0.  9
 -13 +1 1 2   0   0  0.3564599535994139E+02  0.6112121943409508E+01  0.1433563689823463E+03  0.1478480420825879E+03  0.0000000000000000E+00 0.  1
  13 +1 1 2   0   0 -0.2449231924101661E+02 -0.3501217870111677E+01  0.7428932926801233E+03  0.7433051705305791E+03  0.0000000000000000E+00 0. -1
   2 +1 1 2 501   0  0.2378794336044196E+01 -0.2482487430153721E+02  0.2890602516452377E+03  0.2901340416562463E+03  0.0000000000000000E+00 0. -1
   #pdf1pdf2  0.6078012545402278E-03
</event>
<event>
  5   1  0.2401515482509494E+02  0.9513873542124850E+02  0.7546888109483510E-02  0.1172497078501326E+00
   2 -1 0 0 502   0  0.2328117762926006E+02 -0.4147736967006019E+01  0.3748570649659887E+03  0.3748570649659887E+03  0.2364776847300031E+02 0.  9
  21 -1 0 0 501 502 -0.3456657182477615E+02  0.2780138093925718E+02 -0.8224640137782281E+01  0.8224640137782281E+01  0.4435949357067888E+02 0.  9
 -13 +1 1 2   0   0  0.3449947395390949E+02  0.1786975402075424E+02  0.1597620627923291E+03  0.1644185467625804E+03  0.0000000000000000E+00 0.  1
  13 +1 1 2   0   0 -0.3853716104634336E+02 -0.2036112678328940E+02  0.1336843600690591E+03  0.1406100863824172E+03  0.0000000000000000E+00 0. -1
   2 +1 1 2 501   0 -0.7247707103082221E+01  0.2614501673478632E+02  0.7318600196681825E+02  0.7805307195877334E+02  0.0000000000000000E+00 0. -1
   #pdf1pdf2  0.6221622889238072E-07
</event>
<event>
  5   1  0.2401515482509494E+02  0.1227983054315791E+03  0.7546888109483510E-02  0.1129361219879817E+00
   2 -1 0 0 502   0 -0.4569551598393928E+00  0.3695201714341221E-01  0.2102788368757531E+04  0.2102788368757531E+04  0.4584468013573790E+00 0.  9
  21 -1 0 0 501 502 -0.1702560656684395E+02 -0.4946196860978217E+02 -0.4143323840738214E+01  0.4143323840738214E+01  0.5231020567464859E+02 0.  9
 -13 +1 1 2   0   0 -0.2590268414785858E+02  0.4004328682838295E+02  0.6131255942072811E+03  0.6149775671828327E+03  0.0000000000000000E+00 0. -1
  13 +1 1 2   0   0  0.4213253679536761E+02 -0.1445091133965078E+02  0.8454328729900473E+03  0.8466054111730948E+03  0.0000000000000000E+00 0.  1
   2 +1 1 2 501   0 -0.3371241437419238E+02 -0.7501739208137093E+02  0.6400865777194645E+03  0.6453487142423415E+03  0.0000000000000000E+00 0.  1
   #pdf1pdf2  0.2715745859635146E-04
</event>
<event>
  5  27  0.2401515482509494E+02  0.9270450354214491E+02  0.7546888109483510E-02  0.1177068626047511E+00
   1 -1 0 0 501   0  0.1042292692396088E+01 -0.1391336466330561E+00  0.4868322985191751E+03  0.4868322985191751E+03  0.1051538029862781E+01 0.  9
  -1 -1 0 0   0 502 -0.1878012695303126E+01  0.1130358680748092E+01 -0.7158872442688847E+01  0.7158872442688847E+01  0.2191949459011835E+01 0.  9
 -13 +1 1 2   0   0 -0.3659102655711943E+02 -0.8389002988206613E+01  0.1677638715719013E+03  0.1719127546182463E+03  0.0000000000000000E+00 0. -1
  13 +1 1 2   0   0  0.5242539575749447E+02  0.8407971003742041E+01  0.1464391242077392E+03  0.1557675614351697E+03  0.0000000000000000E+00 0.  1
  21 +1 1 2 501 502 -0.1667008920328207E+02  0.9722570185796081E+00  0.1654704302968458E+03  0.1663108549084481E+03  0.0000000000000000E+00 0. -1
   #pdf1pdf2  0.8424988626326534E-03
</event>
<event>
  5  27  0.2401515482509494E+02  0.9429399948777390E+02  0.7546888109483510E-02  0.1174065981086360E+00
   1 -1 0 0 501   0  0.2369769634630773E+00 -0.3152158846743375E+01  0.1203648767086527E+04  0.1203648767086527E+04  0.3161054171683032E+01 0.  9
  -1 -1 0 0   0 502 -0.4190531620068012E+01  0.6805025410767914E+02 -0.4983521533406345E+01  0.4983521533406345E+01  0.6817915839447191E+02 0.  9
 -13 +1 1 2   0   0  0.3030528003579461E+02  0.1345898467572171E+02  0.1040407876785565E+03  0.1091972516472998E+03  0.0000000000000000E+00 0.  1
  13 +1 1 2   0   0 -0.5627851306543946E+02  0.4188901715592317E+02  0.5762095912492263E+03  0.5804648601239755E+03  0.0000000000000000E+00 0. -1
  21 +1 1 2 501 502  0.2201967837303991E+02  0.9550093429290886E+01  0.5184148666253377E+03  0.5189701768486576E+03  0.0000000000000000E+00 0. -1
   #pdf1pdf2  0.1571468224008398E-07
</event>
<event>
  5   1  0.2401515482509494E+02  0.9329292062730465E+02  0.7546888109483510E-02  0.1175949267468689E+00
   2 -1 0 0 502   0  0.2133721073721707E+02  0.8327805519120808E+01  0.4807585992887467E+03  0.4807585992887467E+03  0.2290477912595340E+02 0.  9
  21 -1 0 0 501 502  0.2569384349334949E+01  0.2990188287591256E+01 -0.7678458028623031E+01  0.7678458028623031E+01  0.3942456332016286E+01 0.  9
 -13 +1 1 2   0   0  0.5662572964317741E+02  0.7195859939925731E+01  0.2209868494172685E+03  0.2282398766063191E+03  0.0000000000000000E+00 0.  1
  13 +1 1 2   0   0 -0.3734614088719532E+02  0.2327603770776437E+02  0.1550674434401214E+03  0.1611906330578634E+03  0.0000000000000000E+00 0. -1
   2 +1 1 2 501   0  0.4627006330569927E+01 -0.1915390384097804E+02  0.9702584840273386E+02  0.9900654765318735E+02  0.0000000000000000E+00 0. -1
   #pdf1pdf2  0.4823911462962997E-05
</event>
<event>
  5  11  0.2401515482509494E+02  0.9230183330822574E+02  0.7546888109483510E-02  0.1177840009341037E+00
  -2 -1 0 0   0 501  0.2176506769366982E+02  0.6781420530917416E+01  0.6909001833234613E+03  0.6909001833234613E+03  0.2279705761994688E+02 0.  9
  21 -1 0 0 501 502  0.3663982470047833E+01  0.2100061796318765E+01 -0.4411279252674219E+01  0.4411279252674219E+01  0.4223153689978074E+01 0.  9
 -13 +1 1 2   0   0 -0.2016317306364974E+02  0.3304034434838391E+02  0.1642347858841186E+03  0.1687343557105570E+03  0.0000000000000000E+00 0.  1
  13 +1 1 2   0   0  0.4246041823109321E+02 -0.1021137442356212E+02  0.4797507233280954E+03  0.4817342792637953E+03  0.0000000000000000E+00 0. -1
  -2 +1 1 2   0 502  0.3131804996274184E+01 -0.1394748759758561E+02  0.4250339485857296E+02  0.4484282760178331E+02  0.0000000000000000E+00 0. -1
   #pdf1pdf2  0.1910783182334217E-06
</event>
<event>
  5  26  0.2401515482509494E+02  0.9374299902505763E+02  0.7546888109483510E-02  0.1175099295434433E+00
   2 -1 0 0 501   0  0.8134771174859161E-01 -0.3791482491717155E+00  0.9482596893053715E+03  0.9482596893053715E+03  0.3877767979865598E+00 0.  9
  -2 -1 0 0   0 502 -0.1627782700721264E-01  0.6873644380724498E+00 -0.3790756685607609E+01  0.3790756685607609E+01  0.6875571528089367E+00 0.  9
 -13 +1 1 2   0   0 -0.3976627477261747E+02 -0.1606740200105082E+02  0.1611589203575510E+03  0.1667684491358187E+03  0.0000000000000000E+00 0.  1
  13 +1 1 2   0   0  0.3358750879421301E+02 -0.4444481730222975E+01  0.4786509997754201E+03  0.4798485737718315E+03  0.0000000000000000E+00 0. -1
  21 +1 1 2 501 502  0.6243835863145843E+01  0.2082009992017453E+02  0.3046590124867928E+03  0.3054334230833288E+03  0.0000000000000000E+00 0. -1
   #pdf1pdf2  0.9009483404368666E-02
</event>
<event>
  5  26  0.2401515482509494E+02  0.9215473531017416E+02  0.7546888109483510E-02  0.1178122899908641E+00
   2 -1 0 0 501   0  0.1676758129315810E+01 -0.3597273025701708E+00  0.1178011980074631E+04  0.1178011980074631E+04  0.1714911530208211E+01 0.  9
  -2 -1 0 0   0 502  0.8838786555686987E+01  0.5162979146133507E+01 -0.2735616534954594E+01  0.2735616534954594E+01  0.1023623472964559E+02 0.  9
 -13 +1 1 2   0   0 -0.2446006134323601E+02 -0.3197249914347078E+02  0.4634158161753680E+03  0.4651609979177925E+03  0.0000000000000000E+00 0. -1
  13 +1 1 2   0   0  0.4816765628247193E+02  0.3499327211253100E+02  0.5943024964925435E+03  0.5972772467976305E+03  0.0000000000000000E+00 0.  1
  21 +1 1 2 501 502 -0.1319205025423312E+02  0.1782478874503125E+01  0.1175580508717651E+03  0.1183093518941625E+03  0.0000000000000000E+00 0. -1
   #pdf1pdf2  0.5092008728037633E-04
</event>
<event>
  5  26  0.2401515482509494E+02  0.1022871113385378E+03  0.7546888109483510E-02  0.1159914659040238E+00
   2 -1 0 0 501   0 -0.1091076763887335E+01  0.1300722077734643E+01  0.1183399460551506E+04  0.1183399460551506E+04  0.1697741566965121E+01 0.  9
  -2 -1 0 0   0 502  0.1663362458765816E+00  0.4561291176983422E+01 -0.4684651195618517E+01  0.4684651195618517E+01  0.4564323054727736E+01 0.  9
 -13 +1 1 2   0   0  0.6316941325345786E+01  0.4578858960312838E+02  0.2777469450725109E+03  0.2815668023447792E+03  0.0000000000000000E+00 0. -1
  13 +1 1 2   0   0  0.3835114304590962E+02 -0.3164046475375113E+02  0.5932621756731064E+03  0.5953418667178960E+03  0.0000000000000000E+00 0.  1
  21 +1 1 2 501 502 -0.4559282488926615E+02 -0.8286111594659189E+01  0.3077056886102706E+03  0.3111754426844497E+03  0.0000000000000000E+00 0. -1
   #pdf1pdf2  0.1869649722950911E-03
</event>
<event>
  5  14  0.2401515482509494E+02  0.9219523334467219E+02  0.7546888109483510E-02  0.1178044957442961E+00
  -4 -1 0 0   0 501  0.2982967977070388E+00 -0.5058004817893297E+01  0.1066586754218657E+04  0.1066586754218657E+04  0.5066793238070217E+01 0.  9
  21 -1 0 0 501 502 -0.1620847254236284E+00 -0.1866223252544080E+01 -0.2626817512646681E+01  0.2626817512646681E+01  0.1873248698532007E+01 0.  9
 -13 +1 1 2   0   0 -0.4614022676754854E+02 -0.7960188504397179E+01  0.3908187880703610E+03  0.3936135290306623E+03  0.0000000000000000E+00 0.  1
  13 +1 1 2   0   0  0.3291438952630428E+02  0.3511615979751858E+01  0.6150687207799110E+03  0.6159587808989451E+03  0.0000000000000000E+00 0. -1
  -4 +1 1 2   0 502  0.1336204931352767E+02 -0.2475655545792057E+01  0.5807242785573834E+02  0.5964126180169640E+02  0.0000000000000000E+00 0.  1
   #pdf1pdf2  0.5600630623040023E-05
</event>
<event>
  5   2  0.2401515482509494E+02  0.9699303129179673E+02  0.7546888109483510E-02  0.1169116303058482E+00
   1 -1 0 0 502   0 -0.7952979823478408E+01 -0.9860341262963439E+01  0.6999407165087395E+03  0.6999407165087395E+03  0.1266792081972232E+02 0.  9
  21 -1 0 0 501 502 -0.3461314513901684E+01 -0.1349078022664741E+02 -0.5595906395610206E+01  0.5595906395610206E+01  0.1392773668934933E+02 0.  9
 -13 +1 1 2   0   0  0.2335728521998995E+02  0.3217102155353930E+02  0.1792632604858331E+03  0.1836187734428533E+03  0.0000000000000000E+00 0.  1
  13 +1 1 2   0   0 -0.4980470414808593E+01 -0.4120955711371549E+02  0.4010710109886422E+03  0.4032133288205053E+03  0.0000000000000000E+00 0. -1
   1 +1 1 2 501   0 -0.2979110914256145E+02 -0.1431258592943467E+02  0.1140105386386540E+03  0.1187045206409911E+03  0.0000000000000000E+00 0. -1
   #pdf1pdf2  0.1870729201745033E-05
</event>
<event>
  5  27  0.2401515482509494E+02  0.9272501048561782E+02  0.7546888109483510E-02  0.1177029458931473E+00
   1 -1 0 0 501   0  0.6923756949313999E+00  0.1864476506855219E+00  0.6004142099353182E+03  0.6004142099353182E+03  0.7170403261866722E+00 0.  9
  -1 -1 0 0   0 502 -0.1477462014069433E+02  0.1797966828107805E+02 -0.5048048467290649E+01  0.5048048467290649E+01  0.2327139600022771E+02 0.  9
 -13 +1 1 2   0   0 -0.2456688582518787E+02  0.4222951507601224E+02  0.3020100413508165E+03  0.3059361516712676E+03  0.0000000000000000E+00 0. -1
  13 +1 1 2   0   0  0.2258804327715273E+02 -0.3573162149471896E+02  0.1779625743677724E+03  0.1829143142275566E+03  0.0000000000000000E+00 0.  1
  21 +1 1 2 501 502 -0.1210340189772779E+02  0.1166822235047029E+02  0.1153935457494387E+03  0.1166117925037847E+03  0.0000000000000000E+00 0. -1
   #pdf1pdf2  0.1318264857815474E-04
</event>
<event>
  5  27  0.2401515482509494E+02  0.9200514716768856E+02  0.7546888109483510E-02  0.1178411186157050E+00
   1 -1 0 0 501   0 -0.2448554558648208E+01 -0.1404480260845777E+01  0.8904012602865627E+03  0.8904012602865627E+03  0.2822761808899636E+01 0.  9
  -1 -1 0 0   0 502  0.4265101677038522E+01 -0.6296581262154775E+00 -0.3720269218629050E+01  0.3720269218629050E+01  0.4311329455212858E+01 0.  9
 -13 +1 1 2   0   0 -0.5151733501117591E+01  0.3920474783917189E+02  0.3338654202403251E+03  0.3361988569930726E+03  0.0000000000000000E+00 0. -1
  13 +1 1 2   0   0 -0.1260362111176284E+01 -0.5029143972890805E+02  0.2583146344908583E+03  0.2631677560317818E+03  0.0000000000000000E+00 0.  1
  21 +1 1 2 501 502  0.8228642730684189E+01  0.9052553502674895E+01  0.2945009363367502E+03  0.2947549164803373E+03  0.0000000000000000E+00 0. -1
   #pdf1pdf2  0.4311315991993080E-04
</event>
<event>
  5  26  0.2401515482509494E+02  0.9320327974163118E+02  0.7546888109483510E-02  0.1176119195495540E+00
   2 -1 0 0 501   0 -0.4828457964255322E+01  0.5491261765712054E+01  0.6182401353637161E+03  0.6182401353637161E+03  0.7312179024897553E+01 0.  9
  -2 -1 0 0   0 502 -0.6547143582039500E+02 -0.8145661152593551E+01 -0.8557492036786375E+01  0.8557492036786375E+01  0.6597621316805757E+02 0.  9
 -13 +1 1 2   0   0  0.7021746034684710E+01 -0.2592934328993220E+02  0.1589720112421264E+03  0.1612257303261161E+03  0.0000000000000000E+00 0. -1
  13 +1 1 2   0   0 -0.6552666410195653E+02  0.3852099529950117E+02  0.1973959873567271E+03  0.2115249077809325E+03  0.0000000000000000E+00 0.  1
  21 +1 1 2 501 502 -0.1179497571737850E+02 -0.1524605139645047E+02  0.2533146447280762E+03  0.2540469892934538E+03  0.0000000000000000E+00 0. -1
   #pdf1pdf2  0.8098988469021138E-08
</event>
<event>
  5  27  0.2401515482509494E+02  0.9202877795883566E+02  0.7546888109483510E-02  0.1178365604113745E+00
   1 -1 0 0 501   0  0.2392656739367283E+01 -0.4078096750751759E+00  0.7969214312975686E+03  0.7969214312975686E+03  0.2427161923631095E+01 0.  9
  -1 -1 0 0   0 502 -0.5596675587782071E+00  0.8849867277037699E+01 -0.5005902937058909E+01  0.5005902937058909E+01  0.8867546368501911E+01 0.  9
 -13 +1 1 2   0   0  0.3508630561103477E+02 -0.1595705118258243E+02  0.8386684743752872E+02  0.9230018647318218E+02  0.0000000000000000E+00 0.  1
  13 +1 1 2   0   0 -0.2943814824307261E+02  0.1259010183820369E+02  0.3809386998076195E+03  0.3822818439939269E+03  0.0000000000000000E+00 0. -1
  21 +1 1 2 501 502 -0.3815168187373088E+01  0.1180900694634126E+02  0.3271099811153615E+03  0.3273453037675183E+03  0.0000000000000000E+00 0. -1
   #pdf1pdf2  0.1622550872743289E-04
</event>
<event>
  5   1  0.2401515482509494E+02  0.1015229864399385E+03  0.7546888109483510E-02  0.1161203711748209E+00
   2 -1 0 0 502   0 -0.1438334397068426E+01 -0.1275895567875263E+01  0.9935042732132440E+03  0.9935042732132440E+03  0.1922684409338655E+01 0.  9
  21 -1 0 0 501 502  0.1377648916697214E+01 -0.1439083957381718E+02 -0.5484992939924896E+01  0.5484992939924896E+01  0.1445663101061308E+02 0.  9
 -13 +1 1 2   0   0  0.2647634542511307E+02 -0.1324479950601671E+02  0.2803697172692509E+03  0.2819283595927593E+03  0.0000000000000000E+00 0. -1
  13 +1 1 2   0   0 -0.6516220124585939E+02  0.1993259796762144E+02  0.5035128024548880E+03  0.5081029060819469E+03  0.0000000000000000E+00 0.  1
   2 +1 1 2 501   0  0.3862517034037511E+02 -0.2235453360329717E+02  0.2041367605491802E+03  0.2089580004784628E+03  0.0000000000000000E+00 0. -1
   #pdf1pdf2  0.3938690455798868E-03
</event>
<event>
  5  21  0.2401515482509494E+02  0.9187464543093031E+02  0.7546888109483510E-02  0.1178663190586287E+00
  -2 -1 0 0   0 502 -0.7064092889193214E+01  0.4345433229956838E+01  0.8027026140842821E+03  0.8027026140842821E+03  0.8293623954771716E+01 0.  9
   2 -1 0 0 501   0 -0.2970665554686346E+01  0.2508733524089987E+01 -0.3063977313821011E+01  0.3063977313821011E+01  0.3888264102744681E+01 0.  9
 -13 +1 1 2   0   0 -0.3977137310721268E+02 -0.2564998307192852E+00  0.5005421513635740E+03  0.5021197797365399E+03  0.0000000000000000E+00 0.  1
  13 +1 1 2   0   0  0.2810387831178912E+02  0.1820105998741469E+02  0.1322002620585837E+03  0.1363745425260430E+03  0.0000000000000000E+00 0. -1
  21 +1 1 2 501 502  0.1632736351544004E+01 -0.1109039340264858E+02  0.1668962233483033E+03  0.1672722691355202E+03  0.0000000000000000E+00 0. -1
   #pdf1pdf2  0.4430120202981075E-06
</event>
<event>
  5  27  0.2401515482509494E+02  0.9602013930469937E+02  0.7546888109483510E-02  0.1170879418838094E+00
   1 -1 0 0 501   0  0.2343128101573035E+01 -0.2644383180947377E+01  0.4628803602237840E+03  0.4628803602237840E+03  0.3533130581801162E+01 0.  9
  -1 -1 0 0   0 502 -0.2021397606012207E+01  0.2233948042642746E+00 -0.9244499897805767E+01  0.9244499897805767E+01  0.2033704383671372E+01 0.  9
 -13 +1 1 2   0   0 -0.2327617955626256E+00 -0.5426365183669508E+02  0.1715148759541484E+03  0.1798942766245621E+03  0.0000000000000000E+00 0.  1
  13 +1 1 2   0   0  0.2392271399392745E+02  0.3290842074205582E+02  0.1056123998383239E+03  0.1131779103897109E+03  0.0000000000000000E+00 0. -1
  21 +1 1 2 501 502 -0.2336822170280399E+02  0.1893424271795615E+02  0.1765085845335058E+03  0.1790526731073168E+03  0.0000000000000000E+00 0. -1
   #pdf1pdf2  0.9942184329253331E-04
</event>
<event>
  5  26  0.2401515482509494E+02  0.9207272585648585E+02  0.7546888109483510E-02  0.1178280872602670E+00
   2 -1 0 0 501   0  0.3318676425208756E+01  0.1719539856563361E+00  0.3795404154713708E+03  0.3795404154713708E+03  0.3323128253381062E+01 0.  9
  -2 -1 0 0   0 502 -0.9255547348023000E+00 -0.4251313888195056E+00 -0.7251665373503895E+01  0.7251665373503895E+01  0.1018522589280452E+01 0.  9
 -13 +1 1 2   0   0 -0.2685208016377819E+02 -0.2105715993104990E+02  0.2445927745682947E+03  0.2469616641596432E+03  0.0000000000000000E+00 0. -1
  13 +1 1 2   0   0  0.2885317371072695E+02  0.3352975721308120E+02  0.1001910882321335E+03  0.1095217074971383E+03  0.0000000000000000E+00 0.  1
  21 +1 1 2 501 502  0.3920281434576900E+00 -0.1272577468519446E+02  0.2750488729743870E+02  0.3030870918809318E+02  0.0000000000000000E+00 0. -1
   #pdf1pdf2  0.4895055736243065E-03
</event>
<event>
  5   2  0.2599346369720547E+02  0.1417084448064169E+03  0.7546888109483510E-02  0.1106541906689478E+00
   1 -1 0 0 502   0 -0.8357807446264649E+00  0.3242602318487441E+00  0.8984673734026338E+03  0.8984673734026338E+03  0.8964787510292530E+00 0.  9
  21 -1 0 0 501 502  0.8723157230124674E+02 -0.4039199944620934E+02 -0.1445223902570732E+02  0.1445223902570732E+02  0.9612939626051030E+02 0.  9
 -13 +1 1 2   0   0 -0.3352896318006987E+02  0.1333572819599008E+02  0.9724218697756847E+02  0.1037211451278291E+03  0.0000000000000000E+00 0.  1
  13 +1 1 2   0   0  0.3266334700514459E+02  0.1102821913378894E+02  0.5210405006626071E+03  0.5221797766914970E+03  0.0000000000000000E+00 0. -1
   1 +1 1 2 501   0  0.8726140773154556E+02 -0.6443168654413962E+02  0.2657324467367509E+03  0.2870186906090150E+03  0.0000000000000000E+00 0. -1
   #pdf1pdf2  0.2511503098721322E-05
</event>
<event>
  5  27  0.2401515482509494E+02  0.9392667740005137E+02  0.7546888109483510E-02  0.1174753953531463E+00
   1 -1 0 0 501   0 -0.1481441354263758E+01  0.1222352092718397E+02  0.6510114202136258E+03  0.6510114202136258E+03  0.1231296602543137E+02 0.  9
  -1 -1 0 0   0 502  0.2105056214583989E+02 -0.2227116585758949E+00 -0.6396389345875860E+01  0.6396389345875860E+01  0.2105174024014958E+02 0.  9
 -13 +1 1 2   0   0 -0.3144290605133376E+02 -0.1297058459713545E+02  0.1361966481358061E+03  0.1403795546693785E+03  0.0000000000000000E+00 0.  1
  13 +1 1 2   0   0  0.6051987380741432E+02  0.4562235277676075E+01  0.4554110762127004E+03  0.4594373923110790E+03  0.0000000000000000E+00 0. -1
  21 +1 1 2 501 502 -0.9507846964504431E+01  0.2040915858806746E+02  0.5300730651924346E+02  0.5759086257904420E+02  0.0000000000000000E+00 0.  1
   #pdf1pdf2  0.3335965774639835E-07
</event>
<event>
  5  27  0.2401515482509494E+02  0.9421615411831726E+02  0.7546888109483510E-02  0.1174211487333183E+00
   1 -1 0 0 501   0 -0.1855353280714003E+01 -0.9656990008863054E+00  0.3394350765897231E+03  0.3394350765897231E+03  0.2091628637346750E+01 0.  9
  -1 -1 0 0   0 502 -0.3000948019482285E+01  0.5495597326002629E+01 -0.8590934760308592E+01  0.8590934760308592E+01  0.6261571606649714E+01 0.  9
 -13 +1 1 2   0   0 -0.8430094969557507E+01  0.3514728068665895E+02  0.1321194856328003E+03  0.1369742907436950E+03  0.0000000000000000E+00 0. -1
  13 +1 1 2   0   0 -0.1566133363614403E+02 -0.4445232924064261E+02  0.1403359496067283E+03  0.1480387303991874E+03  0.0000000000000000E+00 0.  1
  21 +1 1 2 501 502  0.1923512730550525E+02  0.1383494687909998E+02  0.5838870658988577E+02  0.6301299020714921E+02  0.0000000000000000E+00 0.  1
   #pdf1pdf2  0.5721166322736793E-04
</event>
<event>
  5  29  0.2401515482509494E+02  0.1023391361134172E+03  0.7546888109483510E-02  0.1159827350355480E+00
   4 -1 0 0 501   0  0.3865681639998543E+01 -0.7898010260677712E+01  0.7016104469570098E+03  0.7016104469570098E+03  0.8793296345489116E+01 0.  9
  -4 -1 0 0   0 502 -0.8830260121942377E+01 -0.3058594752261138E+02 -0.9364327074115460E+01  0.9364327074115460E+01  0.3183510137689376E+02 0.  9
 -13 +1 1 2   0   0 -0.4792789291252891E+02 -0.7058886246707188E+02  0.2911284018636914E+03  0.3033737246287769E+03  0.0000000000000000E+00 0.  1
  13 +1 1 2   0   0 -0.1665655041082971E+01  0.1921048553837501E+02  0.2114446497560180E+03  0.2123220597860267E+03  0.0000000000000000E+00 0. -1
  21 +1 1 2 501 502  0.4462896947166805E+02  0.1289441914540778E+02  0.1896730682631851E+03  0.1952789896163215E+03  0.0000000000000000E+00 0. -1
   #pdf1pdf2  0.1482376607286151E-08
</event>
<event>
  5  26  0.2401515482509494E+02  0.9204058316388563E+02  0.7546888109483510E-02  0.1178342838486475E+00
   2 -1 0 0 501   0 -0.1324640578081365E+02  0.1684836523927032E+02  0.5230667624837664E+03  0.5230667624837664E+03  0.2143209456273058E+02 0.  9
  -2 -1 0 0   0 502  0.1240675294359139E+02  0.3079139780675976E+01 -0.5569823742916610E+01  0.5569823742916610E+01  0.1278313812771554E+02 0.  9
 -13 +1 1 2   0   0  0.3648388471745027E+02  0.9268094378204005E+01  0.8298467098517958E+02  0.9112314215388976E+02  0.0000000000000000E+00 0.  1
  13 +1 1 2   0   0 -0.2847754253502369E+02  0.1948717944368178E+02  0.3810818010371980E+03  0.3826409017254414E+03  0.0000000000000000E+00 0. -1
  21 +1 1 2 501 502 -0.8845995019648836E+01 -0.8827768801939490E+01  0.5343046671847223E+02  0.5487254234735180E+02  0.0000000000000000E+00 0.  1
   #pdf1pdf2  0.5778169205553202E-07
</event>
<event>
  5   2  0.2401515482509494E+02  0.1003272100446755E+03  0.7546888109483510E-02  0.1163246563048183E+00
   1 -1 0 0 502   0 -0.1183307428091819E+01  0.2622565934448772E+01  0.1322108495198563E+04  0.1322108495198563E+04  0.2877163281760080E+01 0.  9
  21 -1 0 0 501 502  0.2063155807745175E+02  0.2269940515276597E+02 -0.4776564349836852E+01  0.4776564349836852E+01  0.3067448749356186E+02 0.  9
 -13 +1 1 2   0   0 -0.1019656508054095E+02  0.4397382485301080E+02  0.5437403995435595E+03  0.5456109321736825E+03  0.0000000000000000E+00 0.  1
  13 +1 1 2   0   0  0.6737738996823010E+02 -0.5821526764748981E+00  0.4915692643213870E+03  0.4961656912828005E+03  0.0000000000000000E+00 0. -1
   1 +1 1 2 501   0 -0.3773257423832924E+02 -0.1806970108932116E+02  0.2820222669837799E+03  0.2851084360919173E+03  0.0000000000000000E+00 0. -1
   #pdf1pdf2  0.7665700560397481E-05
</event>
<event>
  5  26  0.2401515482509494E+02  0.9203249884741096E+02  0.7546888109483510E-02  0.1178358428191641E+00
   2 -1 0 0 501   0  0.4549533515647050E+00  0.9127807450937255E+00  0.7656989669759570E+03  0.7656989669759570E+03  0.1019878051883565E+01 0.  9
  -2 -1 0 0   0 502  0.1453445887930027E+02 -0.1130849191023512E+02 -0.3900864316861084E+01  0.3900864316861084E+01  0.1841555006503807E+02 0.  9
 -13 +1 1 2   0   0  0.3560003249657942E+02 -0.4977068477217578E+02  0.5065607334366541E+03  0.5102433341419854E+03  0.0000000000000000E+00 0. -1
  13 +1 1 2   0   0 -0.1964365574936620E+02  0.2697505407169768E+02  0.1969484355662968E+03  0.1997553829697272E+03  0.0000000000000000E+00 0.  1
  21 +1 1 2 501 502 -0.9669645163482397E+00  0.1239991953533670E+02  0.5828893365614499E+02  0.5960111418110549E+02  0.0000000000000000E+00 0.  1
   #pdf1pdf2  0.3628019931342400E-04
</event>
<event>
  5   1  0.2401515482509494E+02  0.9178585447048869E+02  0.7546888109483510E-02  0.1178834917682281E+00
   2 -1 0 0 502   0 -0.6793885474381618E+00 -0.1896407784387620E+00  0.8545496303657214E+03  0.8545496303657214E+03  0.7053597828321339E+00 0.  9
  21 -1 0 0 501 502  0.2430364454016580E+02 -0.1756514574257404E+02 -0.3094509930766935E+01  0.3094509930766935E+01  0.2998668842824425E+02 0.  9
 -13 +1 1 2   0   0 -0.2617139589822238E+02 -0.2081842893769815E+02  0.1705363525388732E+03  0.1737843390065927E+03  0.0000000000000000E+00 0. -1
  13 +1 1 2   0   0  0.4924687011028601E+02  0.1350653953362279E+02  0.6150328811635993E+03  0.6171491924471998E+03  0.0000000000000000E+00 0.  1
   2 +1 1 2 501   0  0.5487817806639939E+00 -0.1044289711693743E+02  0.6588588673248194E+02  0.6671060884269585E+02  0.0000000000000000E+00 0. -1
   #pdf1pdf2  0.5406631579763587E-03
</event>
<event>
  5  26  0.2401515482509494E+02  0.1050387660453897E+03  0.7546888109483510E-02  0.1155373900768803E+00
   2 -1 0 0 501   0  0.2689963100815301E+01 -0.8361800396391071E+00  0.1316065711799349E+04  0.1316065711799349E+04  0.2816930695355981E+01 0.  9
  -2 -1 0 0   0 502 -0.1762500915784420E+01 -0.2746029796332156E+01 -0.4850550046229526E+01  0.4850550046229526E+01  0.3262987759781661E+01 0.  9
 -13 +1 1 2   0   0 -0.8923570596019047E+01  0.3890429696153443E+02  0.2628970527940505E+03  0.2659098245685014E+03  0.0000000000000000E+00 0.  1
  13 +1 1 2   0   0  0.5727752768177561E+02 -0.2083974873701200E+02  0.7199744871515018E+03  0.7225498408094949E+03  0.0000000000000000E+00 0. -1
  21 +1 1 2 501 502 -0.4742649490072568E+02 -0.2164675806049369E+02  0.3283436218075669E+03  0.3324565964675820E+03  0.0000000000000000E+00 0.  1
   #pdf1pdf2  0.8179023506604101E-04
</event>
<event>
  5   1  0.2401515482509494E+02  0.9251619530898357E+02  0.7546888109483510E-02  0.1177428815368122E+00
   2 -1 0 0 502   0 -0.6828292906749591E+00 -0.1853558057599761E+01  0.5272870212605706E+03  0.5272870212605706E+03  0.1975331190736548E+01 0.  9
  21 -1 0 0 501 502  0.6729670571054489E+01 -0.4372687877654813E+01 -0.6330427681221297E+01  0.6330427681221297E+01  0.8025513396057987E+01 0.  9
 -13 +1 1 2   0   0 -0.8674053400215243E+01 -0.3598961464909791E+02  0.2526421027156994E+03  0.2553400157233299E+03  0.0000000000000000E+00 0.  1
  13 +1 1 2   0   0  0.2962361189146309E+02  0.3443964874639939E+02  0.1074744522254810E+03  0.1166807853437686E+03  0.0000000000000000E+00 0. -1
   2 +1 1 2 501   0 -0.1490271721086831E+02 -0.4676280032556052E+01  0.1608400386381689E+03  0.1615966478746934E+03  0.0000000000000000E+00 0. -1
   #pdf1pdf2  0.1304132379397307E-02
</event>
<event>
  5   1  0.2401515482509494E+02  0.9777030648804798E+02  0.7546888109483510E-02  0.1167724283685316E+00
   2 -1 0 0 502   0  0.1255743574899862E+01  0.2259577910529469E+00  0.9177165003979521E+03  0.9177165003979521E+03  0.1275910987976753E+01 0.  9
  21 -1 0 0 501 502 -0.4968391740932027E+01  0.3678065882070057E+01 -0.5685823693583841E+01  0.5685823693583841E+01  0.6181673327199470E+01 0.  9
 -13 +1 1 2   0   0 -0.4103066696319488E+02  0.3084164657805319E+02  0.4407157673851627E+03  0.4436948392949629E+03  0.0000000000000000E+00 0.  1
  13 +1 1 2   0   0  0.4960106263659323E+02  0.6120989370322192E+01  0.3434894479681513E+03  0.3471062269551155E+03  0.0000000000000000E+00 0. -1
   2 +1 1 2 501   0 -0.1228304383943052E+02 -0.3305861227525237E+02  0.1278254613510543E+03  0.1326012578414576E+03  0.0000000000000000E+00 0. -1
   #pdf1pdf2  0.3195522812362082E-02
</event>
<event>
  5  26  0.2401515482509494E+02  0.1083009880008536E+03  0.7546888109483510E-02  0.1150186778630254E+00
   2 -1 0 0 501   0 -0.1185137068589700E+02  0.5759705854661606E+01  0.1093034809840196E+04  0.1093034809840196E+04  0.1317684327396975E+02 0.  9
  -2 -1 0 0   0 502 -0.4654900404409163E+02  0.1172074202740044E+02 -0.8362586689519647E+01  0.8362586689519647E+01  0.4800193299409650E+02 0.  9
 -13 +1 1 2   0   0 -0.1027922875512308E+03 -0.1907102829254598E+02  0.7268363387109050E+03  0.7343167039982295E+03  0.0000000000000000E+00 0. -1
  13 +1 1 2   0   0 -0.1171996508965593E+02  0.2026426216995107E+02  0.1066508849198476E+03  0.1091897850404599E+03  0.0000000000000000E+00 0.  1
  21 +1 1 2 501 502  0.5611187791089812E+02  0.1628721400465695E+02  0.2511849995199232E+03  0.2578909074910258E+03  0.0000000000000000E+00 0. -1
   #pdf1pdf2  0.2793472285676817E-08
</event>
<event>
  5  26  0.2401515482509494E+02  0.9223515580029617E+02  0.7546888109483510E-02  0.1177968166586439E+00
   2 -1 0 0 501   0 -0.6265901451663686E+01  0.4106359419026748E+01  0.2062092863897448E+04  0.2062092863897448E+04  0.7491575847589796E+01 0.  9
  -2 -1 0 0   0 502  0.2760409367674920E-01  0.1696154509207377E+01 -0.1362544189098112E+01  0.1362544189098112E+01  0.1696379115967958E+01 0.  9
 -13 +1 1 2   0   0 -0.3403999137930112E+02 -0.1899010360052793E+01  0.3285828989416528E+03  0.3303468612388363E+03  0.0000000000000000E+00 0.  1
  13 +1 1 2   0   0  0.3730655817075986E+02  0.1778585390237091E+02  0.1483216219017494E+04  0.1483791922150184E+04  0.0000000000000000E+00 0. -1
  21 +1 1 2 501 502 -0.9504864149445670E+01 -0.1008432961408399E+02  0.2489312017492025E+03  0.2493166246975261E+03  0.0000000000000000E+00 0. -1
   #pdf1pdf2  0.1208588386931582E-05
</event>
<event>
  5   2  0.2401515482509494E+02  0.1160560551231782E+03  0.7546888109483510E-02  0.1138627448646989E+00
   1 -1 0 0 502   0  0.4056734120960778E-02  0.1920599549384379E+01  0.9584344941558419E+03  0.9584344941558419E+03  0.1920603833742714E+01 0.  9
  21 -1 0 0 501 502 -0.3228558710596087E+02  0.9755193133132335E-01 -0.1067258602653458E+02  0.1067258602653458E+02  0.3228573448376067E+02 0.  9
 -13 +1 1 2   0   0  0.3125624397869410E+02  0.3735213852163676E+02  0.1863029800673224E+03  0.1925641073039322E+03  0.0000000000000000E+00 0.  1
  13 +1 1 2   0   0 -0.2377528812776890E+02  0.2443778556871963E+02  0.5856508685007207E+03  0.5866424886289004E+03  0.0000000000000000E+00 0. -1
   1 +1 1 2 501   0 -0.3976248622276511E+02 -0.5977177260964069E+02  0.1758080595612643E+03  0.1899004842495438E+03  0.0000000000000000E+00 0. -1
   #pdf1pdf2  0.1932856215830474E-04
</event>
<event>
  5  26  0.2401515482509494E+02  0.9256734022749897E+02  0.7546888109483510E-02  0.1177330892302304E+00
   2 -1 0 0 501   0  0.1578617867851180E+01  0.2507785129724744E+01  0.9635541530918670E+03  0.9635541530918670E+03  0.2963278695898777E+01 0.  9
  -2 -1 0 0   0 502  0.2331752600276778E+01 -0.7245165021722842E+00 -0.3382190165105528E+01  0.3382190165105528E+01  0.2441719547945152E+01 0.  9
 -13 +1 1 2   0   0 -0.1893178000818136E+02 -0.1286403713302414E+02  0.6125199733965419E+02  0.6538885932431459E+02  0.0000000000000000E+00 0.  1
  13 +1 1 2   0   0  0.3541983041487077E+02  0.2440571879327106E+02  0.8147911066278311E+03  0.8159257018480544E+03  0.0000000000000000E+00 0. -1
  21 +1 1 2 501 502 -0.1257767993856146E+02 -0.9758413032694458E+01  0.8412885895927616E+02  0.8562178208460352E+02  0.0000000000000000E+00 0.  1
   #pdf1pdf2  0.2080048888108394E-03
</event>
<event>
  5  27  0.2401515482509494E+02  0.9203546975221539E+02  0.7546888109483510E-02  0.1178352698923855E+00
   1 -1 0 0 501   0 -0.1557595169379993E+01  0.4113933684228477E+00  0.1525368757670714E+04  0.1525368757670714E+04  0.1611008136310362E+01 0.  9
  -1 -1 0 0   0 502 -0.1379490265925970E+02  0.1179998600525662E+02 -0.2112161610671607E+01  0.2112161610671607E+01  0.1815320933341271E+02 0.  9
 -13 +1 1 2   0   0  0.2148924589144269E+02 -0.2165536305718477E+02  0.3099447084580855E+03  0.3114425544772085E+03  0.0000000000000000E+00 0.  1
  13 +1 1 2   0   0 -0.4709623273124240E+02  0.4094384129911195E+02  0.1137405151498115E+04  0.1139115855359872E+04  0.0000000000000000E+00 0. -1
  21 +1 1 2 501 502  0.1025448901116002E+02 -0.7077098868247715E+01  0.7590673610384201E+02  0.7692250944430549E+02  0.0000000000000000E+00 0. -1
   #pdf1pdf2  0.3543097116971854E-05
</event>
<event>
  5  22  0.2401515482509494E+02  0.9211855835021656E+02  0.7546888109483510E-02  0.1178192563962048E+00
  -1 -1 0 0   0 502  0.8342505994510436E+00  0.2256024279856509E+01  0.5563569462480372E+03  0.5563569462480372E+03  0.2405331497733006E+01 0.  9
   1 -1 0 0 501   0  0.1234392719302156E+02 -0.2258781514370142E+02 -0.4781599844656235E+01  0.4781599844656235E+01  0.2574066688166110E+02 0.  9
 -13 +1 1 2   0   0  0.9845855583780772E+01 -0.5928724185299596E+02  0.3316517554990548E+03  0.3370531187280681E+03  0.0000000000000000E+00 0.  1
  13 +1 1 2   0   0 -0.4437323297912293E+01  0.2845909057308481E+02  0.1728769508007006E+03  0.1752599491967435E+03  0.0000000000000000E+00 0. -1
  21 +1 1 2 501 502  0.7769645506604128E+01  0.1049636041606624E+02  0.4704664010362541E+02  0.4882547816788188E+02  0.0000000000000000E+00 0. -1
   #pdf1pdf2  0.2910607332646508E-06
</event>
<event>
  5  27  0.2401515482509494E+02  0.9178210256786956E+02  0.7546888109483510E-02  0.1178842178876235E+00
   1 -1 0 0 501   0  0.1523073931939620E+01 -0.2513460636872937E+01  0.7276915717951005E+03  0.7276915717951005E+03  0.2938917925914864E+01 0.  9
  -1 -1 0 0   0 502  0.8418337417638418E+00 -0.6102111538316966E+01 -0.3803160950732460E+01  0.3803160950732460E+01  0.6159906596275073E+01 0.  9
 -13 +1 1 2   0   0  0.2985623937617504E+02 -0.1769854364465535E+02  0.9961828865138932E+02  0.1054914068095632E+03  0.0000000000000000E+00 0.  1
  13 +1 1 2   0   0 -0.1707379139421828E+02  0.8706957553701866E+01  0.5867242966296222E+03  0.5870372438933838E+03  0.0000000000000000E+00 0. -1
  21 +1 1 2 501 502 -0.1041754030825330E+02  0.3760139157635756E+00  0.3754582556335640E+02  0.3896608204288593E+02  0.0000000000000000E+00 0.  1
   #pdf1pdf2  0.2633714991922471E-04
</event>
<event>
  5  26  0.2401515482509494E+02  0.9345088961354327E+02  0.7546888109483510E-02  0.1175650332857792E+00
   2 -1 0 0 501   0  0.4779544624031719E+01 -0.6514707091697063E+01  0.1234773726781331E+04  0.1234773726781331E+04  0.8079941540860213E+01 0.  9
  -2 -1 0 0   0 502  0.5325255611750945E+00  0.2868558886484100E+01 -0.2603083376614755E+01  0.2603083376614755E+01  0.2917569803540568E+01 0.  9
 -13 +1 1 2   0   0 -0.4277800413014760E+02  0.2064257658729939E+02  0.7761598953902892E+03  0.7776118934389997E+03  0.0000000000000000E+00 0. -1
  13 +1 1 2   0   0  0.3170047558960819E+02 -0.1207553503996746E+02  0.1927833557816257E+03  0.1957451428912955E+03  0.0000000000000000E+00 0.  1
  21 +1 1 2 501 502  0.1638959872574623E+02 -0.1221318975254490E+02  0.2632273922328018E+03  0.2640197738276509E+03  0.0000000000000000E+00 0. -1
   #pdf1pdf2  0.6866098642859473E-05
</event>
<event>
  5   2  0.2401515482509494E+02  0.9194436554919740E+02  0.7546888109483510E-02  0.1178528499817021E+00
   1 -1 0 0 502   0  0.9849461931348599E+00 -0.1437258198927656E+01  0.1379124693390890E+04  0.1379124693390890E+04  0.1742363375922377E+01 0.  9
  21 -1 0 0 501 502 -0.6118038781016994E+01  0.1080578337622120E+02 -0.2494566514244858E+01  0.2494566514244858E+01  0.1241754214407369E+02 0.  9
 -13 +1 1 2   0   0  0.3655260714347366E+02 -0.1893633995124470E+02  0.1007616423771106E+04  0.1008457007270517E+04  0.0000000000000000E+00 0. -1
  13 +1 1 2   0   0 -0.3267741910242894E+02  0.2073324594140658E+02  0.3337649254916242E+03  0.3360010516276581E+03  0.0000000000000000E+00 0.  1
   1 +1 1 2 501   0 -0.9008280628926858E+01  0.7571619187131660E+01  0.3524877761391508E+02  0.3716120100695994E+02  0.0000000000000000E+00 0. -1
   #pdf1pdf2  0.1988370609449634E-03
</event>
<event>
  5   2  0.2401515482509494E+02  0.9521660486847981E+02  0.7546888109483510E-02  0.1172353373249677E+00
   1 -1 0 0 502   0  0.2495802983862959E+01  0.5368131029327491E-01  0.7676946369705075E+03  0.7676946369705075E+03  0.2496380222909574E+01 0.  9
  21 -1 0 0 501 502  0.4379276624929297E-01 -0.5652716408237742E+01 -0.4801501097332165E+01  0.4801501097332165E+01  0.5652886041513305E+01 0.  9
 -13 +1 1 2   0   0  0.2373676752043680E+02  0.4556531526813865E+02  0.3593886485033029E+03  0.3630424668834691E+03  0.0000000000000000E+00 0.  1
  13 +1 1 2   0   0 -0.3286858467176987E+02 -0.2637136457727200E+02  0.2431762113035759E+03  0.2468004507126235E+03  0.0000000000000000E+00 0. -1
   1 +1 1 2 501   0  0.1167141290144533E+02 -0.2479298578881112E+02  0.1603282760662964E+03  0.1626532204717471E+03  0.0000000000000000E+00 0. -1
   #pdf1pdf2  0.5464366564986586E-03
</event>
<event>
  5  27  0.2401515482509494E+02  0.9208515813761385E+02  0.7546888109483510E-02  0.1178256912779577E+00
   1 -1 0 0 501   0  0.1469141695056334E+01 -0.3556858469664601E+01  0.6115807192356582E+03  0.6115807192356582E+03  0.3848326843366842E+01 0.  9
  -1 -1 0 0   0 502 -0.2945963501211131E+01  0.1676933376532179E+01 -0.4878677495526816E+01  0.4878677495526816E+01  0.3389809212890271E+01 0.  9
 -13 +1 1 2   0   0 -0.1442683642738176E+02  0.3649013047909158E+02  0.2884342862802857E+03  0.2910910523078670E+03  0.0000000000000000E+00 0. -1
  13 +1 1 2   0   0  0.2574516231039846E+02 -0.3919025408578110E+02  0.1640841575923805E+03  0.1706525715320399E+03  0.0000000000000000E+00 0.  1
  21 +1 1 2 501 502 -0.1279514768917150E+02  0.8201985135571010E+00  0.1541835978674651E+03  0.1547157728912781E+03  0.0000000000000000E+00 0.  1
   #pdf1pdf2  0.4139680914532599E-04
</event>
<event>
  5  26  0.2401515482509494E+02  0.1028758251069178E+03  0.7546888109483510E-02  0.1158930017028658E+00
   2 -1 0 0 501   0 -0.3126629567411864E+00 -0.3599989043415974E+00  0.1459528116078122E+04  0.1459528116078122E+04  0.4768200243753314E+00 0.  9
  -2 -1 0 0   0 502  0.1565897120135905E+02 -0.2873478393095886E+02 -0.4986130449502453E+01  0.4986130449502453E+01  0.3272447381767785E+02 0.  9
 -13 +1 1 2   0   0  0.1868834199970346E+02 -0.3390610576295551E+02  0.3947577920363442E+03  0.3966517269697892E+03  0.0000000000000000E+00 0.  1
  13 +1 1 2   0   0 -0.3022936072256698E+02  0.4412059945028898E+02  0.8876995376890325E+03  0.8893092323589527E+03  0.0000000000000000E+00 0. -1
  21 +1 1 2 501 502  0.2688732696748138E+02 -0.3930927652263392E+02  0.1720846559032425E+03  0.1785532871988822E+03  0.0000000000000000E+00 0.  1
   #pdf1pdf2  0.8308022110088744E-05
</event>
<event>
  5  27  0.2401515482509494E+02  0.9316178296540241E+02  0.7546888109483510E-02  0.1176197931475458E+00
   1 -1 0 0 501   0 -0.1405535568622280E+00 -0.3454756644166442E-01  0.1335695753083266E+04  0.1335695753083266E+04  0.1447371296304606E+00 0.  9
  -1 -1 0 0   0 502  0.6913490040771326E+00  0.1742859688073933E+01 -0.3517231577273166E+01  0.3517231577273166E+01  0.1874972889871107E+01 0.  9
 -13 +1 1 2   0   0 -0.4698782287085913E+02  0.2571218016070659E+01  0.1999316355677457E+03  0.2053950475571971E+03  0.0000000000000000E+00 0.  1
  13 +1 1 2   0   0  0.3167420438161676E+02 -0.1145301243334936E+02  0.4318840993396534E+03  0.4331954547077225E+03  0.0000000000000000E+00 0. -1
  21 +1 1 2 501 502  0.1586441393645727E+02  0.1059010653891097E+02  0.7003627865985940E+03  0.7006224823956197E+03  0.0000000000000000E+00 0. -1
   #pdf1pdf2  0.1444522698702820E-02
</event>
<event>
  5   1  0.2401515482509494E+02  0.9559726107528236E+02  0.7546888109483510E-02  0.1171653096392144E+00
   2 -1 0 0 502   0 -0.8936813508556261E+00 -0.3305574414240141E+00  0.2072008780610611E+04  0.2072008780610611E+04  0.9528560116554479E+00 0.  9
  21 -1 0 0 501 502  0.4577729844945903E+01  0.1234918853743028E+02 -0.1886520704030180E+01  0.1886520704030180E+01  0.1317034806169935E+02 0.  9
 -13 +1 1 2   0   0  0.2392081873680397E+02  0.2574222881592269E+02  0.4249605854377390E+03  0.4264110306840528E+03  0.0000000000000000E+00 0.  1
  13 +1 1 2   0   0 -0.4583323449915686E+02 -0.2669932596245930E+02  0.1317821418570712E+04  0.1318888483017130E+04  0.0000000000000000E+00 0. -1
   2 +1 1 2 501   0  0.2559646425644317E+02  0.1297572824254287E+02  0.3273402558981300E+03  0.3285957876134581E+03  0.0000000000000000E+00 0. -1
   #pdf1pdf2  0.4188827557691230E-03
</event>
<event>
  5   1  0.2401515482509494E+02  0.9851435719893257E+02  0.7546888109483510E-02  0.1166405431930349E+00
   2 -1 0 0 502   0  0.1325588664636290E+01  0.7639104872598898E-01  0.7418198559442686E+03  0.7418198559442686E+03  0.1327787972583604E+01 0.  9
  21 -1 0 0 501 502 -0.3775764159778474E+01  0.5060555074095716E+01 -0.7242573840360850E+01  0.7242573840360850E+01  0.6313922128774123E+01 0.  9
 -13 +1 1 2   0   0  0.4862211821375022E+01  0.3447738183669679E+02  0.1687906950039408E+03  0.1723445087086405E+03  0.0000000000000000E+00 0.  1
  13 +1 1 2   0   0 -0.4148206207893772E+02 -0.4424761793283521E+02  0.4705833825201947E+03  0.4744758508830548E+03  0.0000000000000000E+00 0. -1
   2 +1 1 2 501   0  0.3416967476242052E+02  0.1490718221896013E+02  0.9520320457977232E+02  0.1022420701929341E+03  0.0000000000000000E+00 0. -1
   #pdf1pdf2  0.2871881058605865E-02
</event>
<event>
  5  26  0.2401515482509494E+02  0.9414252658463637E+02  0.7546888109483510E-02  0.1174349254734404E+00
   2 -1 0 0 501   0  0.2550003286416544E+01 -0.6720331598598777E+01  0.1073249392742949E+04  0.1073249392742949E+04  0.7187862933853175E+01 0.  9
  -2 -1 0 0   0 502 -0.4175743147343927E+01 -0.3218248644549153E+02 -0.3670125987087420E+01  0.3670125987087420E+01  0.3245226131792415E+02 0.  9
 -13 +1 1 2   0   0  0.2865449662624543E+02 -0.3361283689760365E+02  0.2822341475664306E+03  0.2856694191434536E+03  0.0000000000000000E+00 0.  1
  13 +1 1 2   0   0 -0.3622692670039142E+02  0.1734106761416465E+02  0.2348408710146836E+03  0.2382505772145995E+03  0.0000000000000000E+00 0. -1
  21 +1 1 2 501 502  0.5946690213218604E+01 -0.2263104876065130E+02  0.5525042481747470E+03  0.5529995223719831E+03  0.0000000000000000E+00 0.  1
   #pdf1pdf2  0.8213425214284160E-07
</event>
<event>
  5   1  0.2401515482509494E+02  0.1010529843635775E+03  0.7546888109483510E-02  0.1162002885743573E+00
   2 -1 0 0 502   0 -0.1869209487774061E+00  0.9942243490654354E+00  0.1548296526516443E+04  0.1548296526516443E+04  0.1011642969315971E+01 0.  9
  21 -1 0 0 501 502 -0.6999060820175581E+01 -0.2691440756054090E+01 -0.3544469514170384E+01  0.3544469514170384E+01  0.7498713603536668E+01 0.  9
 -13 +1 1 2   0   0  0.2176994935043560E+02  0.1533973448281376E+02  0.5047531791474850E+03  0.5054552502528952E+03  0.0000000000000000E+00 0. -1
  13 +1 1 2   0   0 -0.6886183642793243E+02  0.3968252660099765E+00  0.5149527699941557E+03  0.5195367795557625E+03  0.0000000000000000E+00 0.  1
   2 +1 1 2 501   0  0.3990590530854385E+02 -0.1743377615581239E+02  0.5250461078606323E+03  0.5268489662219564E+03  0.0000000000000000E+00 0. -1
   #pdf1pdf2  0.2027282055198395E-02
</event>
<event>
  5  27  0.2401515482509494E+02  0.9992523766957270E+02  0.7546888109483510E-02  0.1163940467951971E+00
   1 -1 0 0 501   0  0.1368239167629693E+01 -0.3850597384460757E+01  0.1233335401425736E+04  0.1233335401425736E+04  0.4086462851544355E+01 0.  9
  -1 -1 0 0   0 502  0.2554417108498716E+02  0.5555838897839986E+00 -0.4466175840995823E+01  0.4466175840995823E+01  0.2555021232549118E+02 0.  9
 -13 +1 1 2   0   0  0.1896133894315774E+02 -0.1800064812883014E+02  0.9664608158794379E+03  0.9668143898070218E+03  0.0000000000000000E+00 0. -1
  13 +1 1 2   0   0 -0.2334257701325000E+02 -0.1157121599021171E+02  0.8342818038772452E+02  0.8740154588975153E+02  0.0000000000000000E+00 0.  1
  21 +1 1 2 501 502  0.3129364832270911E+02  0.2627685062436509E+02  0.1789802293175778E+03  0.1835856415699587E+03  0.0000000000000000E+00 0.  1
   #pdf1pdf2  0.1929451471336143E-06
</event>
<event>
  5  27  0.2401515482509494E+02  0.9244472656146201E+02  0.7546888109483510E-02  0.1177565769603157E+00
   1 -1 0 0 501   0  0.4229785317031743E+00 -0.1844131602272945E+01  0.4254818462468804E+03  0.4254818462468804E+03  0.1892018024434110E+01 0.  9
  -1 -1 0 0   0 502  0.5493705347283636E+01 -0.2771412450734364E+02 -0.8948740786954890E+01  0.8948740786954890E+01  0.2825338025177374E+02 0.  9
 -13 +1 1 2   0   0 -0.4010737172398393E+02 -0.1854318788104309E+02  0.9487253452120500E+02  0.1046577703272658E+03  0.0000000000000000E+00 0.  1
  13 +1 1 2   0   0  0.4755515194104492E+02 -0.2612782422432145E+02  0.2023298289260135E+03  0.2094791525380576E+03  0.0000000000000000E+00 0. -1
  21 +1 1 2 501 502 -0.1531096338074176E+01  0.1511275599574795E+02  0.1193307420127070E+03  0.1202936641685119E+03  0.0000000000000000E+00 0. -1
   #pdf1pdf2  0.1836548666379736E-05
</event>
<event>
  5  26  0.2401515482509494E+02  0.9859278232828230E+02  0.7546888109483510E-02  0.1166267191814427E+00
   2 -1 0 0 501   0  0.4435398116443634E+01 -0.4958514374180815E+01  0.1373785725405821E+04  0.1373785725405821E+04  0.6652790485977257E+01 0.  9
  -2 -1 0 0   0 502 -0.5279186336930971E+00  0.1982582920208264E+01 -0.3236816584737021E+01  0.3236816584737021E+01  0.2051665937549755E+01 0.  9
 -13 +1 1 2   0   0  0.1958208700779482E+02 -0.2986604888407216E+02  0.5178855953431255E+03  0.5191155255542162E+03  0.0000000000000000E+00 0. -1
  13 +1 1 2   0   0 -0.5283680605588732E+02  0.2196874482215166E+02  0.5152132476843099E+03  0.5183811767538076E+03  0.0000000000000000E+00 0.  1
  21 +1 1 2 501 502  0.3716219853084305E+02  0.4921372607947943E+01  0.3374500657936492E+03  0.3395258396825346E+03  0.0000000000000000E+00 0.  1
   #pdf1pdf2  0.1313386818530470E-04
</event>
<event>
  5   6  0.2401515482509494E+02  0.9285792709891935E+02  0.7546888109483510E-02  0.1176775870303959E+00
  21 -1 0 0 501 502  0.2672241649876917E+01 -0.1062345073174583E+01  0.6315560326346995E+03  0.6315560326346995E+03  0.2875665573364750E+01 0.  9
   2 -1 0 0 502   0  0.2259862297629064E+01  0.6173954740843024E+00 -0.5489488582039168E+01  0.5489488582039168E+01  0.2342681108402314E+01 0.  9
 -13 +1 1 2   0   0  0.1676912063983767E+02  0.5311274569624448E+02  0.3734735120385110E+03  0.3776038020952745E+03  0.0000000000000000E+00 0.  1
  13 +1 1 2   0   0 -0.1746074827374901E+02 -0.3695406771072567E+02  0.1556649693487910E+03  0.1609411803517303E+03  0.0000000000000000E+00 0. -1
   2 +1 1 2 501   0  0.5623731581417316E+01 -0.1660362758460909E+02  0.9692806266535831E+02  0.9850053876973389E+02  0.0000000000000000E+00 0. -1
   #pdf1pdf2  0.1962919747919050E-03
</event>
<event>
  5  26  0.2401515482509494E+02  0.9276920297815744E+02  0.7546888109483510E-02  0.1176945092280410E+00
   2 -1 0 0 501   0  0.7912356840350865E+00 -0.6083507769446220E+01  0.9464187425959497E+03  0.9464187425959497E+03  0.6134746994669217E+01 0.  9
  -2 -1 0 0   0 502 -0.5754314587640981E+00 -0.3273582804433765E+01 -0.3034198417902500E+01  0.3034198417902500E+01  0.3323772817329700E+01 0.  9
 -13 +1 1 2   0   0  0.2624339297656844E+02 -0.1270169072894375E+02  0.1086040920627018E+03  0.1124495328361134E+03  0.0000000000000000E+00 0. -1
  13 +1 1 2   0   0 -0.4291217128434711E+02  0.9470858908287223E+00  0.6594897363895886E+03  0.6608850609744715E+03  0.0000000000000000E+00 0.  1
  21 +1 1 2 501 502  0.1688458253304966E+02  0.2397514264235047E+01  0.1752907157257567E+03  0.1761183472032674E+03  0.0000000000000000E+00 0. -1
   #pdf1pdf2  0.2168577140370199E-04
</event>
<event>
  5  26  0.2401515482509494E+02  0.9198574902699900E+02  0.7546888109483510E-02  0.1178448615184858E+00
   2 -1 0 0 501   0 -0.3489297015647816E+00 -0.3625465723045637E+00  0.4861294338233189E+03  0.4861294338233189E+03  0.5031818296837395E+00 0.  9
  -2 -1 0 0   0 502  0.2382300314963630E+02  0.1167125382879821E+02 -0.6342961102693955E+01  0.6342961102693955E+01  0.2652835549000009E+02 0.  9
 -13 +1 1 2   0   0  0.5320309918180887E+02  0.7228692026998050E+01  0.1718231677785541E+03  0.1800167346010579E+03  0.0000000000000000E+00 0.  1
  13 +1 1 2   0   0 -0.3357476862013110E+02  0.1553865679251701E+02  0.2722559924638745E+03  0.2747581488787916E+03  0.0000000000000000E+00 0. -1
  21 +1 1 2 501 502  0.3845742886393744E+01 -0.1145864156302141E+02  0.3570731247819651E+02  0.3769751144616337E+02  0.0000000000000000E+00 0.  1
   #pdf1pdf2  0.1960629722214193E-04
</event>
<event>
  5  27  0.2401515482509494E+02  0.9402713504105928E+02  0.7546888109483510E-02  0.1174565452633524E+00
   1 -1 0 0 501   0 -0.1823966295668283E+01  0.1915992971431244E+01  0.4067054906447648E+03  0.4067054906447648E+03  0.2645351038011365E+01 0.  9
  -1 -1 0 0   0 502  0.5859228148980799E+01  0.4465443313739333E+01 -0.8895841450878555E+01  0.8895841450878555E+01  0.7366867617246036E+01 0.  9
 -13 +1 1 2   0   0 -0.3252351458145458E+02  0.3932410973822426E+02  0.1124845289620523E+03  0.1235189615534747E+03  0.0000000000000000E+00 0.  1
  13 +1 1 2   0   0  0.3058046253079830E+02 -0.1080505687729709E+02  0.2287342218316243E+03  0.2310222027850092E+03  0.0000000000000000E+00 0. -1
  21 +1 1 2 501 502  0.5978313903968797E+01 -0.2213761657575659E+02  0.5659089840020965E+02  0.6106016775715942E+02  0.0000000000000000E+00 0.  1
   #pdf1pdf2  0.2429777397879740E-04
</event>
<event>
  5   1  0.2401515482509494E+02  0.9226186338614440E+02  0.7546888109483510E-02  0.1177916818820079E+00
   2 -1 0 0 502   0 -0.1103392948404696E+01  0.1765255753542430E-01  0.1077920953029274E+04  0.1077920953029274E+04  0.1103534145994926E+01 0.  9
  21 -1 0 0 501 502 -0.6468349071532629E+00  0.3996145478830819E+01 -0.2541954624008452E+01  0.2541954624008452E+01  0.4048156875059557E+01 0.  9
 -13 +1 1 2   0   0 -0.2793741916934805E+02 -0.4096622275112256E+02  0.6295555555581669E+03  0.6315052876504603E+03  0.0000000000000000E+00 0. -1
  13 +1 1 2   0   0  0.1685129290040357E+02  0.3450125096186036E+02  0.3524542145643336E+03  0.3545395263641415E+03  0.0000000000000000E+00 0.  1
   2 +1 1 2 501   0  0.9335898413386516E+01  0.1047876982562844E+02  0.9336922828276522E+02  0.9441809363868083E+02  0.0000000000000000E+00 0. -1
   #pdf1pdf2  0.7949245713963403E-02
</event>
<event>
  5   1  0.2401515482509494E+02  0.9268383149746226E+02  0.7546888109483510E-02  0.1177108119979826E+00
   2 -1 0 0 502   0 -0.1834368467013037E+01  0.3758053952162699E+01  0.3607787422772980E+03  0.3607787422772980E+03  0.4181850927536447E+01 0.  9
  21 -1 0 0 501 502  0.5781610529821707E+00  0.2568547766912253E+01 -0.8423325378633441E+01  0.8423325378633441E+01  0.2632813672498564E+01 0.  9
 -13 +1 1 2   0   0  0.1192246497885299E+02  0.4475120408624185E+02  0.1115734340060862E+03  0.1208033385890097E+03  0.0000000000000000E+00 0.  1
  13 +1 1 2   0   0  0.2291304208678822E+01 -0.4439826336835236E+02  0.1752020304212589E+03  0.1807545499533387E+03  0.0000000000000000E+00 0. -1
   2 +1 1 2 501   0 -0.1546997660156268E+02  0.5973661001185463E+01  0.6557995247131953E+02  0.6764417911358308E+02  0.0000000000000000E+00 0. -1
   #pdf1pdf2  0.7955135559993622E-03
</event>
<event>
  5   1  0.2401515482509494E+02  0.9203203204933365E+02  0.7546888109483510E-02  0.1178359328414549E+00
   2 -1 0 0 502   0 -0.8388907856081218E+01  0.3242179014764851E+01  0.7584454041717956E+03  0.7584454041717956E+03  0.8993636627171611E+01 0.  9
  21 -1 0 0 501 502 -0.7586520277733661E+01  0.1262086465280259E+01 -0.3137325023433057E+01  0.3137325023433057E+01  0.7690783586235387E+01 0.  9
 -13 +1 1 2   0   0  0.3457384397140553E+01  0.3372276403365159E+02  0.4758017992537966E+03  0.4770078935343619E+03  0.0000000000000000E+00 0.  1
  13 +1 1 2   0   0 -0.1160168946601712E+02 -0.3887668758837742E+02  0.2285811600313970E+03  0.2321537050266683E+03  0.0000000000000000E+00 0. -1
   2 +1 1 2 501   0 -0.7831123064938314E+01  0.9658189034770944E+01  0.5092511986316902E+02  0.5242113063419855E+02  0.0000000000000000E+00 0.  1
   #pdf1pdf2  0.3957735758595967E-04
</event>
<event>
  5  27  0.2401515482509494E+02  0.9260880152130824E+02  0.7546888109483510E-02  0.1177251561663211E+00
   1 -1 0 0 501   0 -0.4880372198422948E+01 -0.1758285367047199E+01  0.8000232599278143E+03  0.8000232599278143E+03  0.5187446407155639E+01 0.  9
  -1 -1 0 0   0 502 -0.3246572183231639E+01  0.2251279384138799E+01 -0.4649663932824591E+01  0.4649663932824591E+01  0.3950758130584790E+01 0.  9
 -13 +1 1 2   0   0  0.3041707081424550E+02  0.2252254224574390E+02  0.8841236755946437E+02  0.9617281239310813E+02  0.0000000000000000E+00 0.  1
  13 +1 1 2   0   0 -0.2269393243153745E+02 -0.1888675069525684E+02  0.3831081907070578E+03  0.3842442058221143E+03  0.0000000000000000E+00 0. -1
  21 +1 1 2 501 502 -0.1585008276436264E+02 -0.3142797533395458E+01  0.3238530377284674E+03  0.3242559056454164E+03  0.0000000000000000E+00 0.  1
   #pdf1pdf2  0.1134479954608385E-04
</event>
<event>
  5   1  0.2401515482509494E+02  0.1022832665814449E+03  0.7546888109483510E-02  0.1159921113650975E+00
   2 -1 0 0 502   0  0.1763294846353865E+00  0.1541832587865059E+01  0.8519161807812346E+03  0.8519161807812346E+03  0.1551882668295012E+01 0.  9
  21 -1 0 0 501 502 -0.3903724758692245E+02 -0.3344975981044361E+02 -0.5441743264778659E+01  0.5441743264778659E+01  0.5140810374385591E+02 0.  9
 -13 +1 1 2   0   0 -0.1194857562725561E+02  0.3881419768071728E+02  0.4286000132391842E+03  0.4305197809041380E+03  0.0000000000000000E+00 0. -1
  13 +1 1 2   0   0  0.6864546831139560E+01 -0.3900934274641781E+02  0.1596367908290202E+03  0.1644772197323774E+03  0.0000000000000000E+00 0.  1
   2 +1 1 2 501   0 -0.3377688930617101E+02 -0.3171278215687802E+02  0.2582376334482515E+03  0.2623609234094979E+03  0.0000000000000000E+00 0. -1
   #pdf1pdf2  0.3816051496382088E-04
</event>
<event>
  5  27  0.2401515482509494E+02  0.9182088848638631E+02  0.7546888109483510E-02  0.1178767133816244E+00
   1 -1 0 0 501   0 -0.1542742457906394E+01  0.1906702767187284E+01  0.9180180579728435E+03  0.9180180579728435E+03  0.2452665842267696E+01 0.  9
  -1 -1 0 0   0 502 -0.2090287188347344E-01  0.2944988788067733E+01 -0.3533535587457531E+01  0.3533535587457531E+01  0.2945062969088714E+01 0.  9
 -13 +1 1 2   0   0 -0.2629852785342941E+02 -0.4213270323270153E+02  0.3844701471261420E+03  0.3876648955994723E+03  0.0000000000000000E+00 0.  1
  13 +1 1 2   0   0  0.2732765230780615E+02  0.3654096201727701E+02  0.4985391936601009E+03  0.5006229819945025E+03  0.0000000000000000E+00 0. -1
  21 +1 1 2 501 502 -0.2592769784166607E+01  0.1044343277067954E+02  0.3147518159914306E+02  0.3326371596632620E+02  0.0000000000000000E+00 0.  1
   #pdf1pdf2  0.1041867811290550E-03
</event>
<event>
  5   2  0.2401515482509494E+02  0.1046744292457326E+03  0.7546888109483510E-02  0.1155966283821004E+00
   1 -1 0 0 502   0  0.2454481060387724E+00 -0.3820856014870536E+00  0.1034353223035275E+04  0.1034353223035275E+04  0.4541301351173956E+00 0.  9
  21 -1 0 0 501 502 -0.1059577024134949E+01  0.7533202853951942E+01 -0.6139765017559430E+01  0.6139765017559430E+01  0.7607354908827665E+01 0.  9
 -13 +1 1 2   0   0  0.1987253947721827E+02  0.2230354389609594E+02  0.2313065164300817E+03  0.2332275078943698E+03  0.0000000000000000E+00 0.  1
  13 +1 1 2   0   0 -0.7197605811809611E+02 -0.1844587780381289E+02  0.5555786021880068E+03  0.5605250989557491E+03  0.0000000000000000E+00 0. -1
   1 +1 1 2 501   0  0.5128938972278166E+02  0.3293451160181840E+01  0.2413283393996270E+03  0.2467403812027157E+03  0.0000000000000000E+00 0. -1
   #pdf1pdf2  0.2156672016430300E-02
</event>
<event>
  5   1  0.2401515482509494E+02  0.1005482241159326E+03  0.7546888109483510E-02  0.1162866591017785E+00
   2 -1 0 0 502   0  0.4260093631839315E+01  0.5889244612501088E+01  0.9718134311366653E+03  0.9718134311366653E+03  0.7268534918256290E+01 0.  9
  21 -1 0 0 501 502 -0.2066846065673279E+02 -0.4006186430564197E+02 -0.4412890811731237E+01  0.4412890811731237E+01  0.4507924397727385E+02 0.  9
 -13 +1 1 2   0   0  0.2063443392377341E+02 -0.2070421108961509E+02  0.4901365005562595E+03  0.4910073659302212E+03  0.0000000000000000E+00 0.  1
  13 +1 1 2   0   0 -0.1754821336412216E+02  0.2414300733015478E+02  0.7485169912633387E+02  0.8058288563532503E+02  0.0000000000000000E+00 0. -1
   2 +1 1 2 501   0 -0.1949458758454474E+02 -0.3761141593368058E+02  0.4024123406423406E+03  0.4046360703828503E+03  0.0000000000000000E+00 0.  1
   #pdf1pdf2  0.1370628208969850E-05
</event>
<event>
  5   1  0.2401515482509494E+02  0.9180702866162515E+02  0.7546888109483510E-02  0.1178793945778749E+00
   2 -1 0 0 502   0  0.1150020325362978E+01 -0.7129489554333143E+00  0.1470543100997428E+04  0.1470543100997428E+04  0.1353086457622507E+01 0.  9
  21 -1 0 0 501 502 -0.9747015510393830E+01  0.4671551748549382E+01 -0.1054103839485861E+01  0.1054103839485861E+01  0.1080868665006219E+02 0.  9
 -13 +1 1 2   0   0  0.1119987205148708E+02  0.2069194796235205E+02  0.3336909997754261E+03  0.3345194720424653E+03  0.0000000000000000E+00 0. -1
  13 +1 1 2   0   0 -0.9155392639782322E+01 -0.1677470751316216E+02  0.1085412921292250E+04  0.1085581144703019E+04  0.0000000000000000E+00 0.  1
   2 +1 1 2 501   0 -0.1064147459673561E+02  0.4136234392617943E-01  0.5038507609026624E+02  0.5149658809142974E+02  0.0000000000000000E+00 0.  1
   #pdf1pdf2  0.1532633535528704E-02
</event>
<event>
  5   3  0.2401515482509494E+02  0.9257949012403699E+02  0.7546888109483510E-02  0.1177307640282935E+00
   3 -1 0 0 502   0  0.2184757195661688E+01  0.3014491056691729E+01  0.1237407852207403E+04  0.1237407852207403E+04  0.3722945115747738E+01 0.  9
  21 -1 0 0 501 502  0.2731612293841865E+01  0.1891168541048052E+00 -0.3097631089677537E+01  0.3097631089677537E+01  0.2738151001748172E+01 0.  9
 -13 +1 1 2   0   0 -0.1861578598389519E+02  0.4860504675817305E+02  0.7260286650062117E+03  0.7278919016370936E+03  0.0000000000000000E+00 0. -1
  13 +1 1 2   0   0  0.8906731024122358E+01 -0.3893837981428911E+02  0.4604670186430533E+03  0.4621962813979791E+03  0.0000000000000000E+00 0.  1
   3 +1 1 2 501   0  0.1462542444927638E+02 -0.6463059033087412E+01  0.4781453746846046E+02  0.5041730026200801E+02  0.0000000000000000E+00 0. -1
   #pdf1pdf2  0.8127682497208078E-05
</event>
<event>
  5  26  0.2401515482509494E+02  0.9406143819481389E+02  0.7546888109483510E-02  0.1174501145865258E+00
   2 -1 0 0 501   0 -0.5726811547267247E+00  0.5780790658922981E+00  0.1128207024059730E+04  0.1128207024059730E+04  0.8137193075023147E+00 0.  9
  -2 -1 0 0   0 502 -0.5466177004853549E-01 -0.3174657333294701E+01 -0.3917928937940709E+01  0.3917928937940709E+01  0.3175127886077450E+01 0.  9
 -13 +1 1 2   0   0 -0.1599832527810762E+02  0.5351950663322265E+02  0.6698264204102613E+03  0.6721515584163975E+03  0.0000000000000000E+00 0.  1
  13 +1 1 2   0   0 -0.3203291965921160E+00 -0.3920309941964027E+02  0.3800395377851771E+03  0.3820563255527534E+03  0.0000000000000000E+00 0. -1
  21 +1 1 2 501 502  0.1569131154992447E+02 -0.1691298548098477E+02  0.7442313692635116E+02  0.7791706902852037E+02  0.0000000000000000E+00 0. -1
   #pdf1pdf2  0.1192232592268728E-02
</event>
<event>
  5  26  0.2401515482509494E+02  0.1017684257363651E+03  0.7546888109483510E-02  0.1160788291416062E+00
   2 -1 0 0 501   0  0.1740929804360111E+01 -0.6525399639930342E+00  0.8916589270557238E+03  0.8916589270557238E+03  0.1859205472323424E+01 0.  9
  -2 -1 0 0   0 502  0.1529987044279679E+01 -0.9271589369028751E+01 -0.6906122139316646E+01  0.6906122139316646E+01  0.9396979822450968E+01 0.  9
 -13 +1 1 2   0   0  0.4245243578147596E+02 -0.3348590498002409E+02  0.2516572837633806E+03  0.2574002789572580E+03  0.0000000000000000E+00 0.  1
  13 +1 1 2   0   0 -0.4424750275697686E+02 -0.2133655912736992E+02  0.4457085302690051E+03  0.4484073864357958E+03  0.0000000000000000E+00 0. -1
  21 +1 1 2 501 502  0.5065983824140694E+01  0.4489833477437223E+02  0.1873869908840214E+03  0.1927573838019867E+03  0.0000000000000000E+00 0. -1
   #pdf1pdf2  0.4646234301838707E-04
</event>
<event>
  5  27  0.2401515482509494E+02  0.9220814303453307E+02  0.7546888109483510E-02  0.1178020120889379E+00
   1 -1 0 0 501   0 -0.5716439470595001E+01  0.5689818040754075E+01  0.9868466082662743E+03  0.9868466082662743E+03  0.8065464001399238E+01 0.  9
  -1 -1 0 0   0 502  0.1273020392077107E+02 -0.2932311207189022E+02 -0.3233961199362994E+01  0.3233961199362994E+01  0.3196721748049162E+02 0.  9
 -13 +1 1 2   0   0  0.3492638104573764E+02 -0.7828565442209090E+00  0.5468644904296140E+03  0.5479792293966644E+03  0.0000000000000000E+00 0. -1
  13 +1 1 2   0   0 -0.1507607094846588E+02 -0.2757028054436302E+02  0.9464777218552319E+02  0.9972767451525557E+02  0.0000000000000000E+00 0.  1
  21 +1 1 2 501 502 -0.1283654564709570E+02  0.4719843057447786E+01  0.3421003844517742E+03  0.3423736655537172E+03  0.0000000000000000E+00 0.  1
   #pdf1pdf2  0.2732813469917789E-07
</event>
<event>
  5   2  0.2401515482509494E+02  0.1035333780180842E+03  0.7546888109483510E-02  0.1157838820068695E+00
   1 -1 0 0 502   0 -0.1777695704050859E+00  0.2895739432057477E+00  0.2315490642854438E+04  0.2315490642854438E+04  0.3397868283876442E+00 0.  9
  21 -1 0 0 501 502 -0.1802120668495897E+00  0.1249064705303373E+02 -0.2982375657263578E+01  0.2982375657263578E+01  0.1249194701367639E+02 0.  9
 -13 +1 1 2   0   0  0.3566219287579887E+02  0.3069839689365313E+02  0.7430661239792415E+03  0.7445545300232109E+03  0.0000000000000000E+00 0.  1
  13 +1 1 2   0   0  0.1068537004132963E+00 -0.5106497630196074E+02  0.1218323642320323E+04  0.1219393349440242E+04  0.0000000000000000E+00 0. -1
   1 +1 1 2 501   0 -0.3612702821346684E+02  0.3314680040454709E+02  0.3511185008976095E+03  0.3545251390482487E+03  0.0000000000000000E+00 0. -1
   #pdf1pdf2  0.1695735334680628E-03
</event>
<event>
  5  26  0.2401515482509494E+02  0.1001346382825609E+03  0.7546888109483510E-02  0.1163578533302133E+00
   2 -1 0 0 501   0  0.7594570151230990E+00  0.9267541830529517E+00  0.1006484300863574E+04  0.1006484300863574E+04  0.1198185408701771E+01 0.  9
  -2 -1 0 0   0 502 -0.4643066487722540E+01  0.2254589589218231E+01 -0.5055289902516944E+01  0.5055289902516944E+01  0.5161515341953693E+01 0.  9
 -13 +1 1 2   0   0 -0.2090331318920095E+02  0.6627708782776013E+01  0.3464521890369962E+03  0.3471454944465240E+03  0.0000000000000000E+00 0. -1
  13 +1 1 2   0   0  0.5372030646665434E+02 -0.2254410630423173E+02  0.2245858975783860E+03  0.2320192523197527E+03  0.0000000000000000E+00 0.  1
  21 +1 1 2 501 502 -0.3670060275005283E+02  0.1909774129372689E+02  0.4303909243456745E+03  0.4323748439998139E+03  0.0000000000000000E+00 0. -1
   #pdf1pdf2  0.3227469009057368E-03
</event>
<event>
  5   2  0.2401515482509494E+02  0.9534964031723172E+02  0.7546888109483510E-02  0.1172108217163646E+00
   1 -1 0 0 502   0  0.1454081351602730E+01 -0.7424737941836557E+00  0.4514321864333373E+03  0.4514321864333373E+03  0.1632672628584278E+01 0.  9
  21 -1 0 0 501 502 -0.1475076151334611E+01 -0.2664630387451344E+00 -0.8483113615461960E+01  0.8483113615461960E+01  0.1498950367174783E+01 0.  9
 -13 +1 1 2   0   0 -0.2026793251007627E+02  0.2605975292301084E+02  0.1801219756816108E+03  0.1831224342730519E+03  0.0000000000000000E+00 0.  1
  13 +1 1 2   0   0  0.4810142626505332E+02 -0.2644134874735491E+02  0.1306652763821074E+03  0.1417261676061415E+03  0.0000000000000000E+00 0. -1
   1 +1 1 2 501   0 -0.2785448855470893E+02 -0.6273410085847168E+00  0.1321618207541571E+03  0.1350666981696058E+03  0.0000000000000000E+00 0. -1
   #pdf1pdf2  0.3197690639728295E-02
</event>
<event>
  5  26  0.2401515482509494E+02  0.9189863319990089E+02  0.7546888109483510E-02  0.1178616834050459E+00
   2 -1 0 0 501   0  0.4437685955563174E+00  0.2124829290693751E+00  0.1152922790416520E+04  0.1152922790416520E+04  0.4920158143270676E+00 0.  9
  -2 -1 0 0   0 502 -0.1394391706974615E+01  0.3663473266700272E+00 -0.3086657056574242E+01  0.3086657056574242E+01  0.1441713770565384E+01 0.  9
 -13 +1 1 2   0   0  0.1895203394199588E+02 -0.1424697850636086E+02  0.7509612968961781E+02  0.7875014083453547E+02  0.0000000000000000E+00 0.  1
  13 +1 1 2   0   0 -0.1441983367665378E+02  0.4825328144191124E+01  0.1048948746280647E+04  0.1049058953404766E+04  0.0000000000000000E+00 0. -1
  21 +1 1 2 501 502 -0.5482823376760397E+01  0.1000048061790914E+02  0.2579125738968060E+02  0.2820035323379267E+02  0.0000000000000000E+00 0. -1
   #pdf1pdf2  0.4637983918402506E-02
</event>
<event>
  5   1  0.2401515482509494E+02  0.9274266621984047E+02  0.7546888109483510E-02  0.1176995746549871E+00
   2 -1 0 0 502   0 -0.7277288552506901E+01 -0.4967925206101899E+01  0.2047014994186928E+04  0.2047014994186928E+04  0.8811311453459728E+01 0.  9
  21 -1 0 0 501 502 -0.2254698195558537E+02 -0.1996024149166994E+01 -0.2224438894659056E+01  0.2224438894659056E+01  0.2263516087218180E+02 0.  9
 -13 +1 1 2   0   0 -0.4682069006889321E+02 -0.3342068565014942E+02  0.9264577445981363E+03  0.9282419252402462E+03  0.0000000000000000E+00 0.  1
  13 +1 1 2   0   0  0.8516209213411145E+01  0.4108548712291648E+02  0.1040658280283323E+04  0.1041503816312613E+04  0.0000000000000000E+00 0. -1
   2 +1 1 2 501   0  0.8480210347389800E+01 -0.1462875082803595E+02  0.7767453041080967E+02  0.7949369152872784E+02  0.0000000000000000E+00 0. -1
   #pdf1pdf2  0.1839903635093225E-06
</event>
<event>
  5   2  0.2401515482509494E+02  0.1309197873894541E+03  0.7546888109483510E-02  0.1119040499669152E+00
   1 -1 0 0 502   0 -0.3374316141010004E+00  0.5371641399663307E+01  0.1167887390638999E+04  0.1167887390638999E+04  0.5382229224101439E+01 0.  9
  21 -1 0 0 501 502  0.3006114960747721E+02 -0.5207731575209170E+01 -0.9490981059615288E+01  0.9490981059615288E+01  0.3050890335430885E+02 0.  9
 -13 +1 1 2   0   0 -0.6639575964708408E+02  0.1124365922259546E+02  0.2658677887899222E+03  0.2742635555225482E+03  0.0000000000000000E+00 0.  1
  13 +1 1 2   0   0  0.6985942354253837E+01  0.1858362529595676E+02  0.4633685937456167E+03  0.4637937129689318E+03  0.0000000000000000E+00 0. -1
   1 +1 1 2 501   0  0.8913353528620645E+02 -0.2966337469409808E+02  0.4291600270438444E+03  0.4393211032071338E+03  0.0000000000000000E+00 0. -1
   #pdf1pdf2  0.1425064773659548E-05
</event>
<event>
  5   2  0.2401515482509494E+02  0.1153184372184503E+03  0.7546888109483510E-02  0.1139683512227506E+00
   1 -1 0 0 502   0  0.1035242503194398E+01 -0.5794447447872182E+01  0.1191291075461924E+04  0.1191291075461924E+04  0.5886199815379413E+01 0.  9
  21 -1 0 0 501 502  0.7543672773897565E+02  0.3539542663004525E+02 -0.5690898329564290E+01  0.5690898329564290E+01  0.8332788319816636E+02 0.  9
 -13 +1 1 2   0   0  0.2449593472024553E+02 -0.3568528688846507E+02  0.2438060974852341E+03  0.2476184639503082E+03  0.0000000000000000E+00 0.  1
  13 +1 1 2   0   0 -0.1579091823433961E+02  0.4552028211177545E+02  0.3271151090448839E+03  0.3306444370432769E+03  0.0000000000000000E+00 0. -1
   1 +1 1 2 501   0  0.6776695375626412E+02  0.1976598395886269E+02  0.6146789706022421E+03  0.6187190727979037E+03  0.0000000000000000E+00 0. -1
   #pdf1pdf2  0.9188785740881486E-07
</event>
<event>
  5   1  0.2401515482509494E+02  0.9466494587230262E+02  0.7546888109483510E-02  0.1173374774674147E+00
   2 -1 0 0 502   0  0.1967901101446212E+00 -0.9037602213235095E+00  0.1046574634493859E+04  0.1046574634493859E+04  0.9249372330582498E+00 0.  9
  21 -1 0 0 501 502  0.3128527399606419E+02 -0.8197524758207274E+01 -0.3733719309219738E+01  0.3733719309219738E+01  0.3234142515675882E+02 0.  9
 -13 +1 1 2   0   0  0.4987765125209688E+02 -0.1426257334204489E+02  0.6981571202212973E+03  0.7000818277947643E+03  0.0000000000000000E+00 0. -1
  13 +1 1 2   0   0 -0.2028718156791424E+02  0.3051056898955653E+02  0.2019039304640959E+03  0.2052015148406231E+03  0.0000000000000000E+00 0.  1
   2 +1 1 2 501   0  0.1891594422026177E+01 -0.2534928062704243E+02  0.1427798644992456E+03  0.1450250111676911E+03  0.0000000000000000E+00 0. -1
   #pdf1pdf2  0.2745198113625988E-03
</event>
<event>
  5  26  0.2401515482509494E+02  0.9199886347871367E+02  0.7546888109483510E-02  0.1178423309506031E+00
   2 -1 0 0 501   0 -0.9755919336601599E+00  0.5990129071777825E+00  0.1462107597661340E+04  0.1462107597661340E+04  0.1144812685109817E+01 0.  9
  -2 -1 0 0   0 502 -0.1032934753026238E+01 -0.2426306486245010E+02 -0.2014713669289729E+01  0.2014713669289729E+01  0.2428504211903842E+02 0.  9
 -13 +1 1 2   0   0 -0.1564884780372591E+01 -0.5998325377754347E+02  0.5688996116225804E+03  0.5720552488199369E+03  0.0000000000000000E+00 0.  1
  13 +1 1 2   0   0  0.5672982726494856E+01  0.2577927937301587E+02  0.6903291909073035E+03  0.6908336600056047E+03  0.0000000000000000E+00 0. -1
  21 +1 1 2 501 502 -0.6116624632808664E+01  0.1053992244925528E+02  0.2008640814621665E+03  0.2012334025050882E+03  0.0000000000000000E+00 0. -1
   #pdf1pdf2  0.1144493707195086E-04
</event>
<event>
  5   1  0.2401515482509494E+02  0.1132958874934001E+03  0.7546888109483510E-02  0.1142624602948906E+00
   2 -1 0 0 502   0  0.1512175531035242E+01  0.8230362196320087E+01  0.1392920102248828E+04  0.1392920102248828E+04  0.8368126237054298E+01 0.  9
  21 -1 0 0 501 502  0.2554007238270497E+02 -0.5815557674178103E+02 -0.4594966041903814E+01  0.4594966041903814E+01  0.6351666240824522E+02 0.  9
 -13 +1 1 2   0   0  0.2802639539701141E+02  0.1244366611888033E+01  0.1088384185307549E+03  0.1123958568430802E+03  0.0000000000000000E+00 0.  1
  13 +1 1 2   0   0 -0.4955826766068053E+02 -0.4691053101221609E+01  0.6943770432565885E+03  0.6961591097403584E+03  0.0000000000000000E+00 0. -1
   2 +1 1 2 501   0  0.4858412017740933E+02 -0.4647852805612736E+02  0.5851096744195804E+03  0.5889601017072927E+03  0.0000000000000000E+00 0. -1
   #pdf1pdf2  0.1610871739448982E-06
</event>
<event>
  5  26  0.2401515482509494E+02  0.9202789500648760E+02  0.7546888109483510E-02  0.1178367306987822E+00
   2 -1 0 0 501   0  0.1137086347534186E+00  0.6763370514091533E+00  0.5364288269681246E+03  0.5364288269681246E+03  0.6858290317027371E+00 0.  9
  -2 -1 0 0   0 502 -0.3356899474258221E+00  0.8071549368953679E+00 -0.5125741715101021E+01  0.5125741715101021E+01  0.8741778039720046E+00 0.  9
 -13 +1 1 2   0   0  0.4394534109144902E+02  0.2753102223004897E+02  0.3074371098076119E+03  0.3117799330866771E+03  0.0000000000000000E+00 0.  1
  13 +1 1 2   0   0 -0.3530189525970353E+02 -0.1737286358347309E+02  0.1671632575161360E+03  0.1717311703256664E+03  0.0000000000000000E+00 0. -1
  21 +1 1 2 501 502 -0.8865427144417888E+01 -0.8674666658271359E+01  0.5670271792927561E+02  0.5804346527088214E+02  0.0000000000000000E+00 0. -1
   #pdf1pdf2  0.5833662626341648E-02
</event>
<event>
  5   1  0.2401515482509494E+02  0.9400583953833862E+02  0.7546888109483510E-02  0.1174605389935623E+00
   2 -1 0 0 502   0 -0.1449483149507981E+01 -0.9999844251355774E-02  0.6369606514620837E+03  0.6369606514620837E+03  0.1449517643077389E+01 0.  9
  21 -1 0 0 501 502 -0.4185954449568730E+02  0.3406353967032928E+02 -0.6726065716368254E+01  0.6726065716368254E+01  0.5396801089773943E+02 0.  9
 -13 +1 1 2   0   0  0.4313695901261596E+00  0.4183547523259723E+02  0.1476266423441707E+03  0.1534406028320869E+03  0.0000000000000000E+00 0.  1
  13 +1 1 2   0   0 -0.5727932526564862E+02 -0.2618050806467656E+02  0.3735111978950769E+03  0.3787835200459859E+03  0.0000000000000000E+00 0. -1
   2 +1 1 2 501   0  0.1353892803032718E+02  0.1839857265815726E+02  0.1090967455064679E+03  0.1114625943003790E+03  0.0000000000000000E+00 0. -1
   #pdf1pdf2  0.3440788127270266E-04
</event>
<event>
  5  27  0.2401515482509494E+02  0.1029852668731014E+03  0.7546888109483510E-02  0.1158747776425905E+00
   1 -1 0 0 501   0  0.1142372660308961E+01  0.3924584380683081E-01  0.1018802626727013E+04  0.1018802626727013E+04  0.1143046600658732E+01 0.  9
  -1 -1 0 0   0 502  0.1224933043480099E+02  0.7098324920289656E+01 -0.5323753197285723E+01  0.5323753197285723E+01  0.1415741193774296E+02 0.  9
 -13 +1 1 2   0   0  0.2903488950911582E+02 -0.3072766599545372E+02  0.4150922328516255E+03  0.4172394708558657E+03  0.0000000000000000E+00 0. -1
  13 +1 1 2   0   0  0.3203452621786319E+02  0.4205010137824924E+02  0.2839674613504952E+03  0.2888458775917859E+03  0.0000000000000000E+00 0.  1
  21 +1 1 2 501 502 -0.4767771263186906E+02 -0.4184864618699039E+01  0.3144191793276068E+03  0.3180410314766472E+03  0.0000000000000000E+00 0. -1
   #pdf1pdf2  0.1653993742944137E-04
</event>
<event>
  5   2  0.2401515482509494E+02  0.9317042514035244E+02  0.7546888109483510E-02  0.1176181530027571E+00
   1 -1 0 0 502   0 -0.1457043615924454E+01 -0.4528828338699508E+00  0.6470884678630146E+03  0.6470884678630146E+03  0.1525804364890953E+01 0.  9
  21 -1 0 0 501 502 -0.1236067396052516E+01 -0.1606073739859486E+02 -0.4949420891774110E+01  0.4949420891774110E+01  0.1610823231748933E+02 0.  9
 -13 +1 1 2   0   0 -0.1718364604270479E+01 -0.4418187408508948E+02  0.1764692253316209E+03  0.1819241002828551E+03  0.0000000000000000E+00 0.  1
  13 +1 1 2   0   0  0.7871613516727635E+01  0.4461470533018728E+02  0.3175097688538261E+03  0.3207255642269046E+03  0.0000000000000000E+00 0. -1
   1 +1 1 2 501   0 -0.8846359924434127E+01 -0.1694645147756260E+02  0.1481600527857934E+03  0.1493882242450291E+03  0.0000000000000000E+00 0. -1
   #pdf1pdf2  0.3139632022284629E-03
</event>
<event>
  5  26  0.2401515482509494E+02  0.9260694733093062E+02  0.7546888109483510E-02  0.1177255108415187E+00
   2 -1 0 0 501   0 -0.8086621956441320E+00 -0.2941987995514257E+00  0.1402901340102270E+04  0.1402901340102270E+04  0.8605158222377369E+00 0.  9
  -2 -1 0 0   0 502  0.1710132070371501E+00  0.4419007124502677E+00 -0.2275037015408288E+01  0.2275037015408288E+01  0.4738372681049744E+00 0.  9
 -13 +1 1 2   0   0 -0.2487437497679821E+02 -0.4357492311259687E+02  0.5899246817409323E+03  0.5920545908798406E+03  0.0000000000000000E+00 0. -1
  13 +1 1 2   0   0  0.3062612384680073E+02  0.2889243724117697E+02  0.6980571705777388E+03  0.6993257794380337E+03  0.0000000000000000E+00 0.  1
  21 +1 1 2 501 502 -0.6389397858609501E+01  0.1483018778431874E+02  0.1126444507681902E+03  0.1137960067998038E+03  0.0000000000000000E+00 0.  1
   #pdf1pdf2  0.4567715275899942E-02
</event>
<event>
  5  26  0.2401515482509494E+02  0.1008619305146759E+03  0.7546888109483510E-02  0.1162329136187226E+00
   2 -1 0 0 501   0 -0.1335160393432127E+01 -0.1035071496482755E+01  0.6228712961473797E+03  0.6228712961473797E+03  0.1689386361677187E+01 0.  9
  -2 -1 0 0   0 502  0.8262178448151788E+01 -0.5698860037143179E+01 -0.8378779091959558E+01  0.8378779091959558E+01  0.1003696161355873E+02 0.  9
 -13 +1 1 2   0   0 -0.3225757544030321E+02  0.4141061701552997E+02  0.2370489709801257E+03  0.2427912787099862E+03  0.0000000000000000E+00 0. -1
  13 +1 1 2   0   0  0.4568304422064104E+02 -0.5534557395976591E+01  0.2415207808508506E+03  0.2458655312109427E+03  0.0000000000000000E+00 0.  1
  21 +1 1 2 501 502 -0.6498450725618166E+01 -0.4260999115317931E+02  0.1359227652244438E+03  0.1425932653184103E+03  0.0000000000000000E+00 0. -1
   #pdf1pdf2  0.5021642013113588E-04
</event>
<event>
  5  26  0.2401515482509494E+02  0.9311881520876970E+02  0.7546888109483510E-02  0.1176279506904043E+00
   2 -1 0 0 501   0 -0.6806009525693025E+00 -0.2263774508365429E+00  0.4828765494113069E+03  0.4828765494113069E+03  0.7172617422430206E+00 0.  9
  -2 -1 0 0   0 502  0.2066630359557617E+02  0.5687627275908034E+01 -0.6917101236730030E+01  0.6917101236730030E+01  0.2143467304005772E+02 0.  9
 -13 +1 1 2   0   0  0.1192977378149949E+02  0.5339177862010216E+02  0.2326401618763775E+03  0.2389862892397028E+03  0.0000000000000000E+00 0.  1
  13 +1 1 2   0   0  0.1519638084134098E+01 -0.3023581688670548E+02  0.6748862988503578E+02  0.7396775707342003E+02  0.0000000000000000E+00 0. -1
  21 +1 1 2 501 502  0.6536290777373278E+01 -0.1769471190832519E+02  0.1758306564131636E+03  0.1768396043349141E+03  0.0000000000000000E+00 0.  1
   #pdf1pdf2  0.2648695525084716E-04
</event>
<event>
  5  27  0.2401515482509494E+02  0.9211998459487343E+02  0.7546888109483510E-02  0.1178189816840335E+00
   1 -1 0 0 501   0 -0.8047250836829684E+00  0.4918058624617267E+00  0.6455072004751150E+03  0.6455072004751150E+03  0.9431094669550737E+00 0.  9
  -1 -1 0 0   0 502 -0.4737747062822796E+01  0.4918032927656533E+02 -0.4563787426931603E+01  0.4563787426931603E+01  0.4940800577824078E+02 0.  9
 -13 +1 1 2   0   0 -0.3935727387417063E+02  0.3873697449080041E+02  0.2479761699540934E+03  0.2540506427163860E+03  0.0000000000000000E+00 0.  1
  13 +1 1 2   0   0  0.2573564496389078E+02  0.2120798735298920E+02  0.3318485634130724E+03  0.3335199711990152E+03  0.0000000000000000E+00 0. -1
  21 +1 1 2 501 502  0.8079156763774087E+01 -0.1027282670476255E+02  0.6111867968101762E+02  0.6250037398664551E+02  0.0000000000000000E+00 0.  1
   #pdf1pdf2  0.1155667672735358E-05
</event>
<event>
  5   2  0.2401515482509494E+02  0.9271785048905836E+02  0.7546888109483510E-02  0.1177043132836113E+00
   1 -1 0 0 502   0  0.1032045124726108E+01 -0.1655355019093987E+01  0.9285009937387383E+03  0.9285009937387383E+03  0.1950722271034650E+01 0.  9
  21 -1 0 0 501 502  0.1016531930248714E+02 -0.1355313780721188E+01 -0.4031516434311757E+01  0.4031516434311757E+01  0.1025527142330862E+02 0.  9
 -13 +1 1 2   0   0  0.1867646057447492E+02  0.3036697328585629E+02  0.1965807789433250E+03  0.1997873016387635E+03  0.0000000000000000E+00 0.  1
  13 +1 1 2   0   0 -0.6606319265249127E+01 -0.5012727612900529E+02  0.6822705927977472E+03  0.6841414686034880E+03  0.0000000000000000E+00 0. -1
   1 +1 1 2 501   0 -0.8727768820125394E+00  0.1674963404333382E+02  0.4561810556335422E+02  0.4860373993079866E+02  0.0000000000000000E+00 0. -1
   #pdf1pdf2  0.3501459164361753E-03
</event>
<event>
  5  27  0.2401515482509494E+02  0.9270055443605426E+02  0.7546888109483510E-02  0.1177076169921996E+00
   1 -1 0 0 501   0 -0.9069139153613731E-01 -0.7360762987389353E-01  0.1208288578349274E+04  0.1208288578349274E+04  0.1168033033540279E+00 0.  9
  -1 -1 0 0   0 502 -0.9160770738477945E+01  0.8949877692115962E+01 -0.2476513810205142E+01  0.2476513810205142E+01  0.1280703053899649E+02 0.  9
 -13 +1 1 2   0   0 -0.2900442697761976E+02 -0.1760232332408912E+02  0.1842233509883912E+03  0.1873214926806260E+03  0.0000000000000000E+00 0.  1
  13 +1 1 2   0   0  0.3358146923330360E+02  0.1715778655609410E+02  0.8905370715984737E+03  0.8913351673790039E+03  0.0000000000000000E+00 0. -1
  21 +1 1 2 501 502 -0.1382850438569792E+02  0.9320806830237089E+01  0.1310516419522041E+03  0.1321084320998496E+03  0.0000000000000000E+00 0. -1
   #pdf1pdf2  0.7832679706113886E-04
</event>
<event>
  5  26  0.2401515482509494E+02  0.9336169600712603E+02  0.7546888109483510E-02  0.1175819038093648E+00
   2 -1 0 0 501   0  0.1333895657123348E+01  0.6562323303815328E-01  0.8888293226918086E+03  0.8888293226918086E+03  0.1335508904053772E+01 0.  9
  -2 -1 0 0   0 502 -0.4130648029108807E+01 -0.5631663370213700E+02 -0.5279414860213883E+01  0.5279414860213883E+01  0.5646791553334560E+02 0.  9
 -13 +1 1 2   0   0 -0.4521952116880271E+02 -0.4099791004048971E+02  0.5861492533828711E+03  0.5893187430955519E+03  0.0000000000000000E+00 0.  1
  13 +1 1 2   0   0  0.4124194700852767E+02  0.4740001431565375E+01  0.2485528690577800E+03  0.2519958224325938E+03  0.0000000000000000E+00 0. -1
  21 +1 1 2 501 502  0.1180821788289570E+01 -0.1999310186017451E+02  0.4884778539094361E+02  0.5279417202387681E+02  0.0000000000000000E+00 0. -1
   #pdf1pdf2  0.7981622436355360E-06
</event>
<event>
  5  26  0.2401515482509494E+02  0.9208482922913460E+02  0.7546888109483510E-02  0.1178257546606227E+00
   2 -1 0 0 501   0 -0.2075751155247958E+01 -0.4377158292586537E+00  0.1230857686824889E+04  0.1230857686824889E+04  0.2121400010770440E+01 0.  9
  -2 -1 0 0   0 502 -0.1003518298258468E+00  0.3648926776231830E+01 -0.2273658247574531E+01  0.2273658247574531E+01  0.3650306440293885E+01 0.  9
 -13 +1 1 2   0   0  0.9353096255086733E+01 -0.1708466531342886E+02  0.5760916144051127E+02  0.6081267697041208E+02  0.0000000000000000E+00 0.  1
  13 +1 1 2   0   0 -0.2246623692452817E+02  0.2698236723920438E+02  0.1063895362355742E+04  0.1064474575546751E+04  0.0000000000000000E+00 0. -1
  21 +1 1 2 501 502  0.1093703768436763E+02 -0.6686490978802345E+01  0.1070795047810607E+03  0.1078440925552998E+03  0.0000000000000000E+00 0. -1
   #pdf1pdf2  0.2082290748781020E-03
</event>
<event>
  5   1  0.2401515482509494E+02  0.9204688546262695E+02  0.7546888109483510E-02  0.1178330686447416E+00
   2 -1 0 0 502   0  0.3831107565530381E+01 -0.1096426947715660E+01  0.4220005325429017E+03  0.4220005325429017E+03  0.3984913704252728E+01 0.  9
  21 -1 0 0 501 502 -0.3949338373472241E+02  0.7734063999349368E+01 -0.7923364113211513E+01  0.7923364113211513E+01  0.4024354736804483E+02 0.  9
 -13 +1 1 2   0   0  0.1255892144526459E+01 -0.3398989354417011E+02  0.8090553286084901E+02  0.8776443115363205E+02  0.0000000000000000E+00 0.  1
  13 +1 1 2   0   0 -0.3578352593890425E+02  0.5311968376534348E+02  0.2513501442277827E+03  0.2593820667187257E+03  0.0000000000000000E+00 0. -1
   2 +1 1 2 501   0 -0.1134642374814232E+01 -0.1249215316953967E+02  0.8182149134105852E+02  0.8277739878375544E+02  0.0000000000000000E+00 0. -1
   #pdf1pdf2  0.1017902045507868E-04
</event>
<event>
  5  27  0.2401515482509494E+02  0.9174401787683293E+02  0.7546888109483510E-02  0.1178915907558548E+00
   1 -1 0 0 501   0 -0.1476736119038269E+01  0.1241491284253329E+00  0.1568561589545958E+04  0.1568561589545958E+04  0.1481945535895627E+01 0.  9
  -1 -1 0 0   0 502  0.1511709680200498E+01  0.2001576720889834E+01 -0.2405178352919501E+01  0.2405178352919501E+01  0.2508301322971384E+01 0.  9
 -13 +1 1 2   0   0  0.4036205266342198E+02 -0.2233687131184678E+02  0.6293434774222864E+03  0.6310318880129456E+03  0.0000000000000000E+00 0.  1
  13 +1 1 2   0   0 -0.3769490308635127E+02  0.1472870552595680E+02  0.9151034529497746E+03  0.9159979094330729E+03  0.0000000000000000E+00 0. -1
  21 +1 1 2 501 502 -0.2632176015908477E+01  0.9733891635205147E+01  0.2170948082097766E+02  0.2393697045285885E+02  0.0000000000000000E+00 0.  1
   #pdf1pdf2  0.1392179823674460E-03
</event>
<event>
  5  26  0.2401515482509494E+02  0.9174545604736869E+02  0.7546888109483510E-02  0.1178913122656580E+00
   2 -1 0 0 501   0 -0.2317773631720895E+01  0.2192963145176257E+01  0.1050779678493558E+04  0.1050779678493558E+04  0.3190793312642173E+01 0.  9
  -2 -1 0 0   0 502  0.5295258366372973E+01  0.8850871316302273E+01 -0.2367354331889599E+01  0.2367354331889599E+01  0.1031395579903197E+02 0.  9
 -13 +1 1 2   0   0  0.2694471012806831E+02  0.3884669283770652E+02  0.3737055227144605E+03  0.3766840860132014E+03  0.0000000000000000E+00 0.  1
  13 +1 1 2   0   0 -0.1569387570904319E+02 -0.3359013503280384E+02  0.5885369393435758E+03  0.5897035898467948E+03  0.0000000000000000E+00 0. -1
  21 +1 1 2 501 502 -0.8273349684373041E+01  0.5787276656575845E+01  0.8616986210363245E+02  0.8675935696545184E+02  0.0000000000000000E+00 0. -1
   #pdf1pdf2  0.1542062772804938E-04
</event>
<event>
  5  26  0.2401515482509494E+02  0.9177303313914436E+02  0.7546888109483510E-02  0.1178859732876895E+00
   2 -1 0 0 501   0 -0.8994631373195833E+00 -0.7762224674634713E+00  0.4425333941028150E+03  0.4425333941028150E+03  0.1188088908454189E+01 0.  9
  -2 -1 0 0   0 502  0.5430574240555650E+01 -0.6566748431016361E+01 -0.6812248354680684E+01  0.6812248354680684E+01  0.8521345054534667E+01 0.  9
 -13 +1 1 2   0   0 -0.3957000659598394E+02  0.8124983419657628E+01  0.2053728019805397E+03  0.2093078798586281E+03  0.0000000000000000E+00 0.  1
  13 +1 1 2   0   0  0.5394621303875650E+02 -0.1864220857290784E+02  0.1992780359803665E+03  0.2072907655104080E+03  0.0000000000000000E+00 0. -1
  21 +1 1 2 501 502 -0.9845095339536488E+01  0.3174254254770382E+01  0.3107030778722816E+02  0.3274699708845960E+02  0.0000000000000000E+00 0.  1
   #pdf1pdf2  0.1375419569707375E-03
</event>
<event>
  5   1  0.2401515482509494E+02  0.9204414815350806E+02  0.7546888109483510E-02  0.1178335964369897E+00
   2 -1 0 0 502   0  0.2273210715574597E+01 -0.4010281350764686E-01  0.7525382007617932E+03  0.7525382007617932E+03  0.2273564424654467E+01 0.  9
  21 -1 0 0 501 502  0.9715476326521951E+00  0.1758223350926987E+02 -0.4098429558302620E+01  0.4098429558302620E+01  0.1760905562422370E+02 0.  9
 -13 +1 1 2   0   0  0.7440395575728108E+01  0.5554632346001911E+02  0.4955195499113167E+03  0.4986786318668189E+03  0.0000000000000000E+00 0. -1
  13 +1 1 2   0   0  0.8203673009177976E+01 -0.3624507488318061E+02  0.1638314713046465E+03  0.1679933233612994E+03  0.0000000000000000E+00 0.  1
   2 +1 1 2 501   0 -0.1239931023667929E+02 -0.1759117881076282E+01  0.8908874998752731E+02  0.8996467509197757E+02  0.0000000000000000E+00 0. -1
   #pdf1pdf2  0.2797324275991014E-03
</event>
<event>
  5  26  0.2401515482509494E+02  0.1070591156249478E+03  0.7546888109483510E-02  0.1152137100739640E+00
   2 -1 0 0 501   0  0.1908443783637751E+01  0.2109891997537381E+01  0.8632600032450670E+03  0.8632600032450670E+03  0.2844960793504518E+01 0.  9
  -2 -1 0 0   0 502  0.1528144520068283E+01  0.7077778676150924E+00 -0.7903676353588350E+01  0.7903676353588350E+01  0.1684094766959535E+01 0.  9
 -13 +1 1 2   0   0  0.1041144230620324E+02  0.3527577661506807E+02  0.1905193787592711E+03  0.1940371413660544E+03  0.0000000000000000E+00 0.  1
  13 +1 1 2   0   0 -0.6201966650227909E+02 -0.2166759999537492E+02  0.4630982486189022E+03  0.4677348734021315E+03  0.0000000000000000E+00 0. -1
  21 +1 1 2 501 502  0.5504481249978189E+02 -0.1079050675454067E+02  0.2017386995133054E+03  0.2093916648304694E+03  0.0000000000000000E+00 0.  1
   #pdf1pdf2  0.2896238977844515E-03
</event>
<event>
  5  26  0.2401515482509494E+02  0.9191194340990435E+02  0.7546888109483510E-02  0.1178591118804858E+00
   2 -1 0 0 501   0 -0.6214833300646763E+00 -0.2103135043969147E+01  0.1218570767335488E+04  0.1218570767335488E+04  0.2193038655090098E+01 0.  9
  -2 -1 0 0   0 502  0.1107221574850333E+00  0.1120317452909824E+00 -0.2213314394713479E+01  0.2213314394713479E+01  0.1575135172329159E+00 0.  9
 -13 +1 1 2   0   0 -0.2079960994172260E+02 -0.2977018839449735E+02  0.2314014553833472E+03  0.2342339032768375E+03  0.0000000000000000E+00 0.  1
  13 +1 1 2   0   0  0.1681529126586152E+02  0.3875414411237384E+02  0.8684416644075413E+03  0.8694685515791696E+03  0.0000000000000000E+00 0. -1
  21 +1 1 2 501 502  0.3473557503281439E+01 -0.1097505901655466E+02  0.1165143331498855E+03  0.1170816268741939E+03  0.0000000000000000E+00 0.  1
   #pdf1pdf2  0.1309156594901061E-02
</event>
<event>
  5   1  0.2401515482509494E+02  0.9324968366108226E+02  0.7546888109483510E-02  0.1176031203053629E+00
   2 -1 0 0 502   0 -0.9747332220977608E+00 -0.5606669746417611E+00  0.1536364992291783E+04  0.1536364992291783E+04  0.1124478683975391E+01 0.  9
  21 -1 0 0 501 502  0.1141879147739308E+02 -0.1619587961394211E+00 -0.2035930966640595E+01  0.2035930966640595E+01  0.1141993999353025E+02 0.  9
 -13 +1 1 2   0   0  0.5444973573048653E+01 -0.2315746876858459E+02  0.1162541387688014E+04  0.1162784758321398E+04  0.0000000000000000E+00 0.  1
  13 +1 1 2   0   0 -0.1449563407895857E+02  0.2284911835722765E+02  0.1172147264511946E+03  0.1202975382710803E+03  0.0000000000000000E+00 0. -1
   2 +1 1 2 501   0  0.1949471876120524E+02 -0.4142753594242480E+00  0.2545729471859336E+03  0.2553186266659447E+03  0.0000000000000000E+00 0. -1
   #pdf1pdf2  0.1299920747516979E-02
</event>
<event>
  5  28  0.2401515482509494E+02  0.9259766056323777E+02  0.7546888109483510E-02  0.1177272873827015E+00
   3 -1 0 0 501   0 -0.1477520845005233E+01 -0.9718762890393021E+01  0.5248409107102619E+03  0.5248409107102619E+03  0.9830433356017704E+01 0.  9
  -3 -1 0 0   0 502  0.3408736031007921E+01 -0.2935856859791553E+01 -0.5735564299456815E+01  0.5735564299456815E+01  0.4498748362631185E+01 0.  9
 -13 +1 1 2   0   0 -0.1293307989076254E+02  0.4218964406336239E+02  0.1929176391089883E+03  0.1979000912102869E+03  0.0000000000000000E+00 0. -1
  13 +1 1 2   0   0  0.1725523464895179E+01 -0.4554847965750513E+02  0.2817631289108721E+03  0.2854261765220260E+03  0.0000000000000000E+00 0.  1
  21 +1 1 2 501 502  0.1313877161187005E+02 -0.9295784156041837E+01  0.4442457839094482E+02  0.4725020727740569E+02  0.0000000000000000E+00 0.  1
   #pdf1pdf2  0.3098097166634568E-06
</event>
<event>
  5   1  0.2401515482509494E+02  0.9187494762964758E+02  0.7546888109483510E-02  0.1178662606486579E+00
   2 -1 0 0 502   0 -0.8281627747651085E+00 -0.1968672435094116E+01  0.9206989124267317E+03  0.9206989124267317E+03  0.2135772632610045E+01 0.  9
  21 -1 0 0 501 502 -0.6696600295821246E+01  0.1992231155302105E+01 -0.2940056494767216E+01  0.2940056494767216E+01  0.6986661613256331E+01 0.  9
 -13 +1 1 2   0   0 -0.3851056055597888E+02 -0.2247060798200322E+02  0.3581116098658191E+03  0.3608765947219426E+03  0.0000000000000000E+00 0.  1
  13 +1 1 2   0   0  0.4167406948919925E+02  0.1910609582291598E+02  0.3781050659392967E+03  0.3808742730276553E+03  0.0000000000000000E+00 0. -1
   2 +1 1 2 501   0 -0.1068827200380672E+02  0.3388070879295228E+01  0.1815421801268487E+03  0.1818881011719010E+03  0.0000000000000000E+00 0. -1
   #pdf1pdf2  0.1509220149605007E-02
</event>
<event>
  5   1  0.2401515482509494E+02  0.1320613856025345E+03  0.7546888109483510E-02  0.1117656122284884E+00
   2 -1 0 0 502   0  0.7543252757857891E+00 -0.1455584772906089E+00  0.1179858315664905E+04  0.1179858315664905E+04  0.7682407773611523E+00 0.  9
  21 -1 0 0 501 502  0.9054665850343123E+00 -0.6407110440271697E+02 -0.9555722333261549E+01  0.9555722333261549E+01  0.6407750220725266E+02 0.  9
 -13 +1 1 2   0   0  0.3125010770765603E+02 -0.3647040067248447E+01  0.5732357328907277E+03  0.5740984894560879E+03  0.0000000000000000E+00 0.  1
  13 +1 1 2   0   0 -0.3638679329002309E+02  0.3471274513842876E+02  0.2674113796214100E+03  0.2720989146468656E+03  0.0000000000000000E+00 0. -1
   2 +1 1 2 501   0  0.6796477443187150E+01 -0.9528236795118789E+02  0.3296554808195056E+03  0.3432166338952131E+03  0.0000000000000000E+00 0. -1
   #pdf1pdf2  0.2697056390816270E-04
</event>
<event>
  5  26  0.2401515482509494E+02  0.9424993741167590E+02  0.7546888109483510E-02  0.1174148321269279E+00
   2 -1 0 0 501   0 -0.1034816373437229E+02 -0.7934776454547825E+01  0.3284919096225448E+03  0.3284919096225448E+03  0.1304013688797109E+02 0.  9
  -2 -1 0 0   0 502 -0.3639890264558557E+02  0.1633392865670445E+02 -0.1226678153213819E+02  0.1226678153213819E+02  0.3989583110006767E+02 0.  9
 -13 +1 1 2   0   0 -0.3187821077936033E+02 -0.5277493504884858E+02  0.1512010484160793E+03  0.1632886129955946E+03  0.0000000000000000E+00 0.  1
  13 +1 1 2   0   0 -0.1765426293898525E+02  0.3750967538795476E+02  0.1037479260581869E+03  0.1117241285891440E+03  0.0000000000000000E+00 0. -1
  21 +1 1 2 501 502  0.2785407338387728E+01  0.2366441186305045E+02  0.6127615361614045E+02  0.6574594956994437E+02  0.0000000000000000E+00 0.  1
   #pdf1pdf2  0.1179416476246365E-07
</event>
<event>
  5   1  0.2401515482509494E+02  0.9691749680269321E+02  0.7546888109483510E-02  0.1169252357924065E+00
   2 -1 0 0 502   0 -0.7554109507910214E+00  0.5167599513110895E+00  0.4889381007805987E+03  0.4889381007805987E+03  0.9152521793768287E+00 0.  9
  21 -1 0 0 501 502 -0.5540798264015753E+01  0.5614019367715019E+01 -0.8879643330711701E+01  0.8879643330711701E+01  0.7887817116515781E+01 0.  9
 -13 +1 1 2   0   0 -0.4141396739291935E+02 -0.4851001223995679E+02  0.2248447572171750E+03  0.2337167149152856E+03  0.0000000000000000E+00 0.  1
  13 +1 1 2   0   0  0.1014978116043702E+02  0.3332616064721540E+02  0.1431239155839822E+03  0.1473027706907770E+03  0.0000000000000000E+00 0. -1
   2 +1 1 2 501   0  0.2496797701767555E+02  0.2131463091176750E+02  0.1120897846487299E+03  0.1167982585052478E+03  0.0000000000000000E+00 0. -1
   #pdf1pdf2  0.3065215119697190E-02
</event>
<event>
  5   1  0.2401515482509494E+02  0.9303307851149560E+02  0.7546888109483510E-02  0.1176442427699061E+00
   2 -1 0 0 502   0 -0.1040399166134459E+02  0.3166968031600438E+02  0.4094298623452772E+03  0.4094298623452772E+03  0.3333484203963239E+02 0.  9
  21 -1 0 0 501 502  0.2396055495504840E+01  0.2290920442719898E+02 -0.4914286951529767E+01  0.4914286951529767E+01  0.2303416439606030E+02 0.  9
 -13 +1 1 2   0   0  0.1062871084702447E+02  0.1405342045449745E+02  0.2830850666981067E+03  0.2836329020198680E+03  0.0000000000000000E+00 0. -1
  13 +1 1 2   0   0 -0.1970775683690000E+02  0.2212115496097073E+02  0.8188116777766231E+02  0.8707621267018533E+02  0.0000000000000000E+00 0.  1
   2 +1 1 2 501   0  0.1071109824035785E+01  0.1840430932773518E+02  0.3954934091797838E+02  0.4363503460675361E+02  0.0000000000000000E+00 0. -1
   #pdf1pdf2  0.1085931043336436E-06
</event>
<event>
  5  23  0.2401515482509494E+02  0.9199119056378601E+02  0.7546888109483510E-02  0.1178438114608743E+00
  -3 -1 0 0   0 502 -0.1885038343310708E+01  0.4037539777111890E+01  0.4519004063890929E+03  0.4519004063890929E+03  0.4455905857119550E+01 0.  9
   3 -1 0 0 501   0  0.1248127766619954E+01 -0.8429614585770379E+01 -0.6962220330656689E+01  0.6962220330656689E+01  0.8521515416077145E+01 0.  9
 -13 +1 1 2   0   0 -0.5155011432418691E+02 -0.1052361407492529E+02  0.1794339876705679E+03  0.1869885468989912E+03  0.0000000000000000E+00 0.  1
  13 +1 1 2   0   0  0.3880233022719621E+02  0.6778118478807870E+01  0.1302139258695755E+03  0.1360412812771934E+03  0.0000000000000000E+00 0. -1
  21 +1 1 2 501 502  0.1211087352029994E+02 -0.6465792125410728E+00  0.1352902725182928E+03  0.1358327985435650E+03  0.0000000000000000E+00 0.  1
   #pdf1pdf2  0.9038847792378712E-06
</event>
<event>
  5  22  0.2401515482509494E+02  0.9254159559413050E+02  0.7546888109483510E-02  0.1177380174627470E+00
  -1 -1 0 0   0 502 -0.2542501238004123E+01  0.1096783150974238E+01  0.7397396796172573E+03  0.7397396796172573E+03  0.2768979202795405E+01 0.  9
   1 -1 0 0 501   0  0.9075678785066669E+01  0.1596424876035945E+02 -0.4832910846435120E+01  0.4832910846435120E+01  0.1836369200058495E+02 0.  9
 -13 +1 1 2   0   0  0.2291399911229123E+01 -0.3986300545248363E+02  0.2270525465555916E+03  0.2305366968936551E+03  0.0000000000000000E+00 0.  1
  13 +1 1 2   0   0  0.1813130600302214E+02  0.4945810824517074E+02  0.2397695785878936E+03  0.2454878806474616E+03  0.0000000000000000E+00 0. -1
  21 +1 1 2 501 502 -0.1388952836718872E+02  0.7465929118646578E+01  0.2680846436273370E+03  0.2685480129225757E+03  0.0000000000000000E+00 0.  1
   #pdf1pdf2  0.2719959493318038E-06
</event>
<event>
  5   1  0.2401515482509494E+02  0.1065323353691399E+03  0.7546888109483510E-02  0.1152973312212215E+00
   2 -1 0 0 502   0 -0.2276814102115976E+01  0.8335285250116319E-01  0.7158240660115209E+03  0.7158240660115209E+03  0.2278339341190039E+01 0.  9
  21 -1 0 0 501 502 -0.1524415485935293E+02 -0.5671675100470044E+01 -0.8336957251785787E+01  0.8336957251785787E+01  0.1626505935498624E+02 0.  9
 -13 +1 1 2   0   0 -0.2556668536322982E+02  0.1183936013473100E+02  0.8063570228400482E+02  0.8541628844486810E+02  0.0000000000000000E+00 0.  1
  13 +1 1 2   0   0  0.6249009041417681E+02 -0.2577398685588251E+02  0.3494814317426499E+03  0.3559586786851975E+03  0.0000000000000000E+00 0. -1
   2 +1 1 2 501   0 -0.5444437401241589E+02  0.8346304473182629E+01  0.2773699747330804E+03  0.2827860561332411E+03  0.0000000000000000E+00 0. -1
   #pdf1pdf2  0.2177629785628706E-03
</event>
<event>
  5  27  0.2401515482509494E+02  0.9198614191457818E+02  0.7546888109483510E-02  0.1178447856999392E+00
   1 -1 0 0 501   0  0.1125165288956010E+02 -0.5508793796212612E+01  0.8234217801941613E+03  0.8234217801941613E+03  0.1252782909511208E+02 0.  9
  -1 -1 0 0   0 502 -0.3208853804731439E+00 -0.3442873809988494E+00 -0.3334102361163378E+01  0.3334102361163378E+01  0.4706391697643124E+00 0.  9
 -13 +1 1 2   0   0 -0.4229151158112207E+01  0.2336776344645621E+02  0.6249216418287931E+03  0.6253726860952612E+03  0.0000000000000000E+00 0. -1
  13 +1 1 2   0   0  0.3888043528662689E+01 -0.3359203621751956E+02  0.1025564226588805E+03  0.1079877845328205E+03  0.0000000000000000E+00 0.  1
  21 +1 1 2 501 502  0.1127187513853648E+02  0.4371191593851893E+01  0.9260961334532442E+02  0.9339541192724303E+02  0.0000000000000000E+00 0. -1
   #pdf1pdf2  0.5939100355238279E-05
</event>
<event>
  5   1  0.2401515482509494E+02  0.1021398779366969E+03  0.7546888109483510E-02  0.1160162060924518E+00
   2 -1 0 0 502   0  0.6301053426744975E+00 -0.6686767627610382E+00  0.9673293720382726E+03  0.9673293720382726E+03  0.9187825400624064E+00 0.  9
  21 -1 0 0 501 502 -0.7545185105750562E+01  0.9667619215258659E+01 -0.6025084802972189E+01  0.6025084802972189E+01  0.1226346931220030E+02 0.  9
 -13 +1 1 2   0   0 -0.2039569272395055E+02  0.6123818768255630E+02  0.3331578458895427E+03  0.3393526929171096E+03  0.0000000000000000E+00 0.  1
  13 +1 1 2   0   0  0.3110895428929908E+02 -0.9736205013011926E+01  0.3959811863031849E+03  0.3973206018206288E+03  0.0000000000000000E+00 0. -1
   2 +1 1 2 501   0 -0.1762834132842460E+02 -0.4250304021704675E+02  0.2321652550425729E+03  0.2366811621035064E+03  0.0000000000000000E+00 0. -1
   #pdf1pdf2  0.1598577389742460E-02
</event>
<event>
  5  26  0.2401515482509494E+02  0.9384952021966988E+02  0.7546888109483510E-02  0.1174898912344980E+00
   2 -1 0 0 501   0  0.2419641758679021E+01 -0.1080232267977096E+01  0.4606059443017963E+03  0.4606059443017963E+03  0.2649824143810726E+01 0.  9
  -2 -1 0 0   0 502  0.7913705511427997E+01  0.8366052117215832E+01 -0.6253196265950734E+01  0.6253196265950734E+01  0.1151596990919902E+02 0.  9
 -13 +1 1 2   0   0 -0.2458293430660781E+02  0.9816007509428468E+01  0.7001465804168078E+02  0.7485136607465255E+02  0.0000000000000000E+00 0. -1
  13 +1 1 2   0   0  0.5373396049241960E+02  0.9231597342422271E+01  0.2529770918526236E+03  0.2587855674142286E+03  0.0000000000000000E+00 0.  1
  21 +1 1 2 501 502 -0.1881767891570477E+02 -0.1176178500261200E+02  0.1313609981415412E+03  0.1332222070788658E+03  0.0000000000000000E+00 0. -1
   #pdf1pdf2  0.2013821793498080E-04
</event>
<event>
  5  26  0.2401515482509494E+02  0.9531146003732769E+02  0.7546888109483510E-02  0.1172178529421312E+00
   2 -1 0 0 501   0  0.1321175358542011E+01 -0.5141126973726124E+01  0.7172755750650908E+03  0.7172755750650908E+03  0.5308172085378633E+01 0.  9
  -2 -1 0 0   0 502  0.1846793141898485E+01 -0.1566156283555181E+01 -0.5955940323870055E+01  0.5955940323870055E+01  0.2421464518319989E+01 0.  9
 -13 +1 1 2   0   0  0.1045900367505324E+01  0.4151116396895665E+02  0.5702716839384758E+03  0.5717814828618195E+03  0.0000000000000000E+00 0. -1
  13 +1 1 2   0   0  0.1433172667535774E+02 -0.2332043860135871E+02  0.6663136565591969E+02  0.7203457597036146E+02  0.0000000000000000E+00 0.  1
  21 +1 1 2 501 502 -0.1220965854242256E+02 -0.2489800862487925E+02  0.7441658514682524E+02  0.7941545655677996E+02  0.0000000000000000E+00 0.  1
   #pdf1pdf2  0.5487995681041665E-04
</event>
<event>
  5   2  0.2401515482509494E+02  0.9456880861172321E+02  0.7546888109483510E-02  0.1173553571828255E+00
   1 -1 0 0 502   0 -0.4810648597884576E+00 -0.6179072887405503E+00  0.1078035677732036E+04  0.1078035677732036E+04  0.7830918316532144E+00 0.  9
  21 -1 0 0 501 502 -0.2625025196596915E+01  0.1369621437225544E+02 -0.3371852681572433E+01  0.3371852681572433E+01  0.1394550269490294E+02 0.  9
 -13 +1 1 2   0   0  0.2549581043756729E+02  0.3294852053364068E+02  0.4951120521689199E+03  0.4968617368626240E+03  0.0000000000000000E+00 0.  1
  13 +1 1 2   0   0 -0.4930894714919184E+02 -0.5756746058358321E+01  0.3259364544222661E+03  0.3296954423638582E+03  0.0000000000000000E+00 0. -1
   1 +1 1 2 501   0  0.2070704665523917E+02 -0.1411346739176748E+02  0.2536153184592781E+03  0.2548503511871267E+03  0.0000000000000000E+00 0. -1
   #pdf1pdf2  0.7547263063775798E-03
</event>
<event>
  5  21  0.2401515482509494E+02  0.9205319161250834E+02  0.7546888109483510E-02  0.1178318528072563E+00
  -2 -1 0 0   0 502 -0.6919344870435243E+01  0.1474123028414784E+01  0.5687163364128617E+03  0.5687163364128617E+03  0.7074628763328948E+01 0.  9
   2 -1 0 0 501   0  0.9328016484826672E+02 -0.1659712660620442E+02 -0.7894843864803174E+01  0.7894843864803174E+01  0.9474520444699137E+02 0.  9
 -13 +1 1 2   0   0  0.1087496159381673E+02  0.4854250197360615E+01  0.3078036978551285E+03  0.3080339996622723E+03  0.0000000000000000E+00 0.  1
  13 +1 1 2   0   0  0.7299852534185663E+02 -0.7635639571709639E+01  0.1784595578408980E+03  0.1929634718762169E+03  0.0000000000000000E+00 0. -1
  21 +1 1 2 501 502  0.2487333042158124E+01 -0.1234161420344062E+02  0.7455823685203207E+02  0.7561370873917566E+02  0.0000000000000000E+00 0.  1
   #pdf1pdf2  0.1067572664327510E-09
</event>
<event>
  5   1  0.2401515482509494E+02  0.9540733452362782E+02  0.7546888109483510E-02  0.1172002038324152E+00
   2 -1 0 0 502   0 -0.2119914315909975E+00  0.1885475141096604E+01  0.9768822547713208E+03  0.9768822547713208E+03  0.1897355231568738E+01 0.  9
  21 -1 0 0 501 502  0.3163275520782063E+02  0.9099720384721630E+01 -0.4857533627015975E+01  0.4857533627015975E+01  0.3291559073019990E+02 0.  9
 -13 +1 1 2   0   0 -0.8437949853072208E+01 -0.4038650926231915E+02  0.3943136324741336E+03  0.3964662783681160E+03  0.0000000000000000E+00 0.  1
  13 +1 1 2   0   0  0.1192019771484166E+02  0.4878114690210535E+02  0.5024344970823837E+03  0.5049377340475492E+03  0.0000000000000000E+00 0. -1
   2 +1 1 2 501   0  0.2793851591446018E+02  0.2590557886032041E+01  0.7527659158778761E+02  0.8033577598267165E+02  0.0000000000000000E+00 0. -1
   #pdf1pdf2  0.7875796069269687E-04
</event>
<event>
  5  26  0.2401515482509494E+02  0.9262775615293316E+02  0.7546888109483510E-02  0.1177215309996953E+00
   2 -1 0 0 501   0  0.4687893842036122E+01 -0.7036014679811418E+00  0.6369170951342995E+03  0.6369170951342995E+03  0.4740401217190946E+01 0.  9
  -2 -1 0 0   0 502 -0.6266979161639217E+01  0.4916965652112659E+01 -0.4644574532313656E+01  0.4644574532313656E+01  0.7965649944384692E+01 0.  9
 -13 +1 1 2   0   0  0.3421672329027634E+02  0.1292968783780188E+02  0.9182522762321867E+02  0.9884246763594210E+02  0.0000000000000000E+00 0.  1
  13 +1 1 2   0   0 -0.2315769336683779E+02  0.1525328253656195E+01  0.4630357358751203E+03  0.4636169734659939E+03  0.0000000000000000E+00 0. -1
  21 +1 1 2 501 502 -0.1263811524304165E+02 -0.1024165190732655E+02  0.7741155710364694E+02  0.7910222856467723E+02  0.0000000000000000E+00 0. -1
   #pdf1pdf2  0.1182072937938095E-04
</event>
<event>
  5  22  0.2401515482509494E+02  0.9264375728547537E+02  0.7546888109483510E-02  0.1177184714602055E+00
  -1 -1 0 0   0 502  0.2664109343041893E+00 -0.1078503026310184E+01  0.6804445630414144E+03  0.6804445630414144E+03  0.1110920142799227E+01 0.  9
   1 -1 0 0 501   0 -0.6122991321818663E+00 -0.9404135225189558E+01 -0.4524807233098321E+01  0.4524807233098321E+01  0.9424047408673289E+01 0.  9
 -13 +1 1 2   0   0  0.2810625832367444E+02 -0.2889216798606088E+02  0.1863951688897102E+03  0.1907036394862863E+03  0.0000000000000000E+00 0.  1
  13 +1 1 2   0   0 -0.2121883958465408E+02  0.3308117638675034E+02  0.4466642469990278E+03  0.4483899563233538E+03  0.0000000000000000E+00 0. -1
  21 +1 1 2 501 502 -0.7233306936898041E+01 -0.1467164665218920E+02  0.4286033991957811E+02  0.4587577446487256E+02  0.0000000000000000E+00 0. -1
   #pdf1pdf2  0.7849321301054997E-05
</event>
<event>
  5  27  0.2401515482509494E+02  0.1475757270501979E+03  0.7546888109483510E-02  0.1100247489648968E+00
   1 -1 0 0 501   0 -0.6522043378046057E+00 -0.2310158226118692E+01  0.1211638069132124E+04  0.1211638069132124E+04  0.2400458607840386E+01 0.  9
  -1 -1 0 0   0 502 -0.2993178931479026E+01  0.3703788531744009E+01 -0.1702637423641797E+02  0.1702637423641797E+02  0.4762055186967951E+01 0.  9
 -13 +1 1 2   0   0 -0.9749394765846912E+02  0.1934266718856678E+02  0.2650046289381083E+03  0.2830312031607548E+03  0.0000000000000000E+00 0.  1
  13 +1 1 2   0   0 -0.1730652513588527E+02  0.1533539593223551E+02  0.5029101554447093E+03  0.5034414709080879E+03  0.0000000000000000E+00 0. -1
  21 +1 1 2 501 502  0.1111550895250708E+03 -0.3328443281517697E+02  0.4266969105128886E+03  0.4421917692996994E+03  0.0000000000000000E+00 0. -1
   #pdf1pdf2  0.1506108876962283E-04
</event>
<event>
  5  26  0.2401515482509494E+02  0.9291554913071452E+02  0.7546888109483510E-02  0.1176666082150897E+00
   2 -1 0 0 501   0  0.8658158179873323E+00 -0.8422856706997194E+00  0.4993963440252468E+03  0.4993963440252468E+03  0.1207924741754696E+01 0.  9
  -2 -1 0 0   0 502  0.9869239774398252E+00 -0.4961757271147866E+01 -0.6385706977229405E+01  0.6385706977229405E+01  0.5058957813130523E+01 0.  9
 -13 +1 1 2   0   0 -0.3915029196664494E+02  0.1713485366770008E+02  0.1380980224500605E+03  0.1445593731859144E+03  0.0000000000000000E+00 0.  1
  13 +1 1 2   0   0  0.4216159562680046E+02 -0.5143695548768040E+01  0.3100488833996132E+03  0.3129446721819101E+03  0.0000000000000000E+00 0. -1
  21 +1 1 2 501 502 -0.1158563864728371E+01 -0.1779520106077963E+02  0.4486373119834371E+02  0.4827800563465175E+02  0.0000000000000000E+00 0. -1
   #pdf1pdf2  0.3850153354338886E-03
</event>
<event>
  5   1  0.2401515482509494E+02  0.9968111522206212E+02  0.7546888109483510E-02  0.1164363678902219E+00
   2 -1 0 0 502   0  0.9243063598262662E+00  0.1340082601873324E+01  0.1144869786892662E+04  0.1144869786892662E+04  0.1627932316362956E+01 0.  9
  21 -1 0 0 501 502 -0.1420409526337949E+01  0.5126485799390703E+01 -0.6357222630630716E+01  0.6357222630630716E+01  0.5319625914842709E+01 0.  9
 -13 +1 1 2   0   0 -0.3299028665662816E+02 -0.4925868857199623E+02  0.4352207712804953E+03  0.4392401361072422E+03  0.0000000000000000E+00 0.  1
  13 +1 1 2   0   0  0.7375599770104547E+01  0.2425950313555956E+02  0.6081284165045356E+03  0.6086567948562366E+03  0.0000000000000000E+00 0. -1
   2 +1 1 2 501   0  0.2511858372001193E+02  0.3146575383770070E+02  0.9516337647700038E+02  0.1033300785598140E+03  0.0000000000000000E+00 0. -1
   #pdf1pdf2  0.1921895499962248E-02
</event>
<event>
  5  26  0.2401515482509494E+02  0.9359371223341337E+02  0.7546888109483510E-02  0.1175380629756266E+00
   2 -1 0 0 501   0  0.1686914008151817E+01  0.1681701196462708E+01  0.8365447861302323E+03  0.8365447861302323E+03  0.2381973506377209E+01 0.  9
  -2 -1 0 0   0 502 -0.9108429286852120E-01  0.1648847193285733E+01 -0.3471678158733461E+01  0.3471678158733461E+01  0.1651361079598765E+01 0.  9
 -13 +1 1 2   0   0  0.9497760472891354E+01 -0.2232819332954336E+02  0.3822763375583709E+03  0.3830456290422896E+03  0.0000000000000000E+00 0.  1
  13 +1 1 2   0   0 -0.2511210277833758E+02  0.3783680106419119E+02  0.1911815971446406E+03  0.1965010033244019E+03  0.0000000000000000E+00 0. -1
  21 +1 1 2 501 502  0.1721017202072952E+02 -0.1217805934489938E+02  0.2596151732684874E+03  0.2604698319222741E+03  0.0000000000000000E+00 0. -1
   #pdf1pdf2  0.5961638499820596E-03
</event>
<event>
  5  27  0.2401515482509494E+02  0.9179234671573249E+02  0.7546888109483510E-02  0.1178822353920879E+00
   1 -1 0 0 501   0 -0.2685282915478767E+01 -0.5551845277700258E+00  0.5697729928340634E+03  0.5697729928340634E+03  0.2742074797673720E+01 0.  9
  -1 -1 0 0   0 502 -0.1987885953848578E+02  0.1254403218161844E+02 -0.5001221448291592E+01  0.5001221448291592E+01  0.2350578226573892E+02 0.  9
 -13 +1 1 2   0   0 -0.5229503914878412E+02  0.1549811465452025E+02  0.3084593470160137E+03  0.3132445233981962E+03  0.0000000000000000E+00 0.  1
  13 +1 1 2   0   0  0.3914927221994951E+02  0.1164200535203507E+01  0.2277565034211765E+03  0.2310996445883858E+03  0.0000000000000000E+00 0. -1
  21 +1 1 2 501 502 -0.9418375525129935E+01 -0.4673467535875343E+01  0.2855592094858162E+02  0.3043004629577302E+02  0.0000000000000000E+00 0.  1
   #pdf1pdf2  0.1735563238174179E-05
</event>
<event>
  5  27  0.2401515482509494E+02  0.9328316095499558E+02  0.7546888109483510E-02  0.1175967758047820E+00
   1 -1 0 0 501   0 -0.1018871280507776E+02  0.4382292075620162E+01  0.4343694596012548E+03  0.4343694596012548E+03  0.1109118354642095E+02 0.  9
  -1 -1 0 0   0 502  0.5037065811808723E+01 -0.4922138360845833E+01 -0.7862825185502037E+01  0.7862825185502037E+01  0.7042689687598224E+01 0.  9
 -13 +1 1 2   0   0  0.6484523406760608E+01 -0.5645192041401653E+02  0.1860133409263711E+03  0.1944989238140758E+03  0.0000000000000000E+00 0.  1
  13 +1 1 2   0   0 -0.7075635386345136E+01  0.3678978820621946E+02  0.1220749191744814E+03  0.1276943186826852E+03  0.0000000000000000E+00 0. -1
  21 +1 1 2 501 502 -0.4560535013684513E+01  0.1912228592257139E+02  0.1184183743149002E+03  0.1200390422899959E+03  0.0000000000000000E+00 0.  1
   #pdf1pdf2  0.7582228850037640E-06
</event>
<event>
  5  26  0.2401515482509494E+02  0.9181155923465150E+02  0.7546888109483510E-02  0.1178785180759494E+00
   2 -1 0 0 501   0  0.8764088428122577E+01 -0.3500563743124585E+01  0.7032155135365157E+03  0.7032155135365157E+03  0.9437329733331906E+01 0.  9
  -2 -1 0 0   0 502  0.1054423251911940E+01  0.2684742619493659E+01 -0.4374332069842012E+01  0.4374332069842012E+01  0.2884380579448250E+01 0.  9
 -13 +1 1 2   0   0 -0.2769526110320163E+02 -0.2222866701291396E+02  0.3228957430462985E+03  0.3248427342610063E+03  0.0000000000000000E+00 0. -1
  13 +1 1 2   0   0  0.4819294638887440E+02  0.2158559124685256E+02  0.2128590654725434E+03  0.2193113758676499E+03  0.0000000000000000E+00 0.  1
  21 +1 1 2 501 502 -0.1067917360563825E+02 -0.1727453575695259E+00  0.1630863729478318E+03  0.1634357354777015E+03  0.0000000000000000E+00 0. -1
   #pdf1pdf2  0.9954811802430854E-05
</event>
<event>
  5   1  0.2401515482509494E+02  0.9610638388419319E+02  0.7546888109483510E-02  0.1170722178263313E+00
   2 -1 0 0 502   0 -0.6586674026321370E+00  0.5088241715836871E+01  0.6632333233806389E+03  0.6632333233806389E+03  0.5130696493271913E+01 0.  9
  21 -1 0 0 501 502 -0.7226006820182518E+01  0.1735970246809742E+02 -0.5729171030888626E+01  0.5729171030888626E+01  0.1880357530753638E+02 0.  9
 -13 +1 1 2   0   0 -0.2962266130335059E+02  0.1628926278288236E+02  0.9033230881411879E+02  0.9645085878514584E+02  0.0000000000000000E+00 0.  1
  13 +1 1 2   0   0  0.4313316348078445E+02 -0.1536794468986536E+02  0.3994501746280371E+03  0.4020660213524890E+03  0.0000000000000000E+00 0. -1
   2 +1 1 2 501   0 -0.2139517640024852E+02  0.2152662609091729E+02  0.1677216689075943E+03  0.1704456142738927E+03  0.0000000000000000E+00 0. -1
   #pdf1pdf2  0.3317574838369470E-04
</event>
<event>
  5   1  0.2401515482509494E+02  0.9431808624255166E+02  0.7546888109483510E-02  0.1174020990719597E+00
   2 -1 0 0 502   0  0.4685428697719572E+01  0.1059683070136714E+02  0.5886139651039375E+03  0.5886139651039375E+03  0.1158646033069856E+02 0.  9
  21 -1 0 0 501 502 -0.1185867236397336E+00 -0.5397709407937735E+00 -0.4004458905357483E+01  0.4004458905357483E+01  0.5526440803528089E+00 0.  9
 -13 +1 1 2   0   0 -0.3029494999858798E+02  0.8094167916721030E+01  0.2193711954678066E+03  0.2216010400486776E+03  0.0000000000000000E+00 0. -1
  13 +1 1 2   0   0  0.3150398601559674E+02  0.2582371145198967E+02  0.2487080078635736E+03  0.2520219006028919E+03  0.0000000000000000E+00 0.  1
   2 +1 1 2 501   0  0.3357805957071078E+01 -0.2386081960813734E+02  0.1165303028671999E+03  0.1189954833577255E+03  0.0000000000000000E+00 0. -1
   #pdf1pdf2  0.8099665566832955E-04
</event>
<event>
  5  26  0.2401515482509494E+02  0.9547075410083788E+02  0.7546888109483510E-02  0.1171885419730012E+00
   2 -1 0 0 501   0 -0.1718871316192233E+00 -0.7737203801336651E+01  0.8659831802826977E+03  0.8659831802826977E+03  0.7739112859329202E+01 0.  9
  -2 -1 0 0   0 502 -0.2463936647367004E+01 -0.6913762737799594E+01 -0.5522771760835045E+01  0.5522771760835045E+01  0.7339693385750135E+01 0.  9
 -13 +1 1 2   0   0 -0.3533960681864281E+02 -0.2456496632687415E+02  0.1927719848537569E+03  0.1975180081035494E+03  0.0000000000000000E+00 0.  1
  13 +1 1 2   0   0  0.3030689939740778E+02  0.3808547504460321E+02  0.5756686536285645E+03  0.5777226067335273E+03  0.0000000000000000E+00 0. -1
  21 +1 1 2 501 502  0.2396883642248802E+01 -0.2817147525686531E+02  0.9201977003954119E+02  0.9626533720645607E+02  0.0000000000000000E+00 0.  1
   #pdf1pdf2  0.2635658455989840E-05
</event>
<event>
  5  26  0.2401515482509494E+02  0.9318125718540635E+02  0.7546888109483510E-02  0.1176160975374147E+00
   2 -1 0 0 501   0 -0.2887861391399735E+01  0.1946389663797369E+01  0.6387742220188840E+03  0.6387742220188840E+03  0.3482553106454294E+01 0.  9
  -2 -1 0 0   0 502  0.2542574822259173E+02  0.1548804309086783E+02 -0.4479616036802548E+01  0.4479616036802548E+01  0.2977159974645644E+02 0.  9
 -13 +1 1 2   0   0  0.2734682516066965E+02 -0.2316488939467644E+02  0.2321630854488093E+03  0.2349130885926686E+03  0.0000000000000000E+00 0. -1
  13 +1 1 2   0   0 -0.2379214087297363E+02  0.3793532278645649E+02  0.1840756964347425E+03  0.1894439671780750E+03  0.0000000000000000E+00 0.  1
  21 +1 1 2 501 502  0.1898320254349596E+02  0.2663999362885148E+01  0.2180558240985296E+03  0.2188967822849430E+03  0.0000000000000000E+00 0. -1
   #pdf1pdf2  0.1154804207388578E-05
</event>
<event>
  5  26  0.2401515482509494E+02  0.9377849687398613E+02  0.7546888109483510E-02  0.1175032485287468E+00
   2 -1 0 0 501   0  0.1076064552984796E-01 -0.1062607513420489E+01  0.6932438426442912E+03  0.6932438426442912E+03  0.1062661996624465E+01 0.  9
  -2 -1 0 0   0 502 -0.5679227099540930E+02  0.3843893929101198E+02 -0.5503618992348634E+01  0.5503618992348634E+01  0.6857779595929075E+02 0.  9
 -13 +1 1 2   0   0 -0.6043590291980190E+02  0.6663978341904549E+01  0.4104181269963063E+03  0.4148975125693444E+03  0.0000000000000000E+00 0. -1
  13 +1 1 2   0   0  0.2542929678493744E+02  0.2848250968978240E+02  0.1590087440423329E+03  0.1635288450858904E+03  0.0000000000000000E+00 0.  1
  21 +1 1 2 501 502 -0.2177490421501499E+02  0.2229843745904546E+01  0.1183133526133034E+03  0.1203211039814051E+03  0.0000000000000000E+00 0. -1
   #pdf1pdf2  0.5249273541700298E-06
</event>
<event>
  5  26  0.2401515482509494E+02  0.9291957321367298E+02  0.7546888109483510E-02  0.1176658418333401E+00
   2 -1 0 0 501   0  0.1037084718240624E+01  0.8643175139651424E+00  0.8626406084135523E+03  0.8626406084135523E+03  0.1350033139502552E+01 0.  9
  -2 -1 0 0   0 502  0.4937448589207761E+01 -0.7135590601969140E+00 -0.1952933008314731E+01  0.1952933008314731E+01  0.4988743840232610E+01 0.  9
 -13 +1 1 2   0   0 -0.4970299779223286E+01  0.2598874823697074E+02  0.4621444999641843E+03  0.4629013477642574E+03  0.0000000000000000E+00 0. -1
  13 +1 1 2   0   0  0.2225925719279257E+02 -0.1202701320230993E+02  0.1232158450875183E+03  0.1257865972907080E+03  0.0000000000000000E+00 0.  1
  21 +1 1 2 501 502 -0.1131442410612090E+02 -0.1381097658089258E+02  0.2753273303535349E+03  0.2759055963669016E+03  0.0000000000000000E+00 0.  1
   #pdf1pdf2  0.4673688130127888E-03
</event>
<event>
  5  21  0.2401515482509494E+02  0.1044941109032512E+03  0.7546888109483510E-02  0.1156260449821819E+00
  -2 -1 0 0   0 502 -0.2730366416627392E+01  0.1276222688479439E+02  0.5563257862580772E+03  0.5563257862580772E+03  0.1305102815214247E+02 0.  9
   2 -1 0 0 501   0 -0.3023700974579666E+01  0.3462715306470194E+01 -0.1237647522136790E+02  0.1237647522136790E+02  0.4597082213462904E+01 0.  9
 -13 +1 1 2   0   0 -0.3391590555048773E+02 -0.2719216325536065E+02  0.1284709572208482E+03  0.1356262852143964E+03  0.0000000000000000E+00 0. -1
  13 +1 1 2   0   0 -0.1880269240031046E+02  0.6336865334492605E+02  0.1710290300422189E+03  0.1833577284584217E+03  0.0000000000000000E+00 0.  1
  21 +1 1 2 501 502  0.4696453055959113E+02 -0.1995154789830081E+02  0.2444493237736423E+03  0.2497182478066269E+03  0.0000000000000000E+00 0. -1
   #pdf1pdf2  0.1565149231126034E-06
</event>
<event>
  5   1  0.2401515482509494E+02  0.9268497923625863E+02  0.7546888109483510E-02  0.1177105926922997E+00
   2 -1 0 0 502   0  0.1382952941792940E+00 -0.4876650131136735E+00  0.2384478419923962E+04  0.2384478419923962E+04  0.5068952094933398E+00 0.  9
  21 -1 0 0 501 502 -0.2608190605176311E+02  0.3335710543460935E+02 -0.1880417822001160E+01  0.1880417822001160E+01  0.4234338562595865E+02 0.  9
 -13 +1 1 2   0   0 -0.2162226980893682E+02 -0.2833923784640218E+02  0.4328004592830528E+03  0.4342659006979789E+03  0.0000000000000000E+00 0.  1
  13 +1 1 2   0   0 -0.1577950435384055E+02  0.4921167663559085E+02  0.1863432277886546E+04  0.1864148769852981E+04  0.0000000000000000E+00 0. -1
   2 +1 1 2 501   0  0.1145816340519356E+02  0.1199700163230701E+02  0.8636526493236170E+02  0.8794416719500343E+02  0.0000000000000000E+00 0. -1
   #pdf1pdf2  0.3220080127598457E-04
</event>
<event>
  5   1  0.2401515482509494E+02  0.1078507069157694E+03  0.7546888109483510E-02  0.1150890556436631E+00
   2 -1 0 0 502   0 -0.9766957335635992E+00 -0.1242519525361371E+00  0.1304857356420044E+04  0.1304857356420044E+04  0.9845674703494828E+00 0.  9
  21 -1 0 0 501 502  0.6991183177477578E+01  0.2927297730877112E+01 -0.6908568780243225E+01  0.6908568780243225E+01  0.7579295100881333E+01 0.  9
 -13 +1 1 2   0   0  0.2443382863206936E+02  0.7494756740356235E+02  0.6898764411156650E+03  0.6943656485222671E+03  0.0000000000000000E+00 0. -1
  13 +1 1 2   0   0  0.1377544134913366E+02 -0.2439535262336477E+02  0.4144307383306319E+03  0.4153766157203056E+03  0.0000000000000000E+00 0.  1
   2 +1 1 2 501   0 -0.3219478253728904E+02 -0.4774916900185660E+02  0.1936416081935033E+03  0.2020236609577142E+03  0.0000000000000000E+00 0. -1
   #pdf1pdf2  0.2052942067006004E-02
</event>
<event>
  5   3  0.2401515482509494E+02  0.9540496338018063E+02  0.7546888109483510E-02  0.1172006400453186E+00
   3 -1 0 0 502   0 -0.2991156299267264E+01 -0.2325767882755208E+01  0.3635055839259188E+03  0.3635055839259188E+03  0.3788959256986261E+01 0.  9
  21 -1 0 0 501 502  0.7203645516415739E+01  0.5067903863632235E+02 -0.1100614807299749E+02  0.1100614807299749E+02  0.5118845051208358E+02 0.  9
 -13 +1 1 2   0   0 -0.3392748771575334E+02  0.3224266201358981E+01  0.8096502813679258E+02  0.8784535330016855E+02  0.0000000000000000E+00 0.  1
  13 +1 1 2   0   0  0.5823980417628336E+02  0.2556331613805247E+02  0.1783544734358377E+03  0.1893559508360928E+03  0.0000000000000000E+00 0. -1
   3 +1 1 2 501   0 -0.2009982724338154E+02  0.1956568841415569E+02  0.9317993428029098E+02  0.9731042786265486E+02  0.0000000000000000E+00 0. -1
   #pdf1pdf2  0.5526700329066138E-06
</event>
<event>
  5   1  0.2401515482509494E+02  0.1060249465117561E+03  0.7546888109483510E-02  0.1153783862249111E+00
   2 -1 0 0 502   0 -0.3794903947137973E+00 -0.5141442643683128E+00  0.7264000765396725E+03  0.7264000765396725E+03  0.6390283908112904E+00 0.  9
  21 -1 0 0 501 502  0.3568142329552364E+02  0.1292624102521944E+02 -0.9402774542786382E+01  0.9402774542786382E+01  0.3795064789218233E+02 0.  9
 -13 +1 1 2   0   0  0.2630333891177309E+02  0.4112439069968454E+02  0.3834783854622345E+03  0.3865730891630327E+03  0.0000000000000000E+00 0. -1
  13 +1 1 2   0   0 -0.4054432180394146E+02 -0.6998221121634508E+01  0.2156706806510996E+03  0.2195601503504619E+03  0.0000000000000000E+00 0.  1
   2 +1 1 2 501   0  0.4954291579297820E+02 -0.2171407281719890E+02  0.1178482358835520E+03  0.1296696115689642E+03  0.0000000000000000E+00 0. -1
   #pdf1pdf2  0.1610573168608994E-03
</event>
<event>
  5  27  0.2401515482509494E+02  0.9215997597370271E+02  0.7546888109483510E-02  0.1178112811209071E+00
   1 -1 0 0 501   0 -0.6109215807464051E+01 -0.8322732892942258E+00  0.8940929335395118E+03  0.8940929335395118E+03  0.6165646487615168E+01 0.  9
  -1 -1 0 0   0 502 -0.1481519584435036E+01 -0.4589390654433418E+01 -0.4809785658653081E+01  0.4809785658653081E+01  0.4822593374737846E+01 0.  9
 -13 +1 1 2   0   0  0.7272451827353530E+01  0.4197270339652894E+02  0.1281511158164193E+03  0.1350455659064284E+03  0.0000000000000000E+00 0.  1
  13 +1 1 2   0   0 -0.1962580113204943E+02 -0.3492476987477688E+02  0.3165703132305692E+03  0.3190950874579262E+03  0.0000000000000000E+00 0. -1
  21 +1 1 2 501 502  0.4762613912796812E+01 -0.1246959746547971E+02  0.4445617188338702E+03  0.4447620658338102E+03  0.0000000000000000E+00 0. -1
   #pdf1pdf2  0.4176616803104199E-05
</event>
<event>
  5  26  0.2401515482509494E+02  0.9173965210182087E+02  0.7546888109483510E-02  0.1178924361881889E+00
   2 -1 0 0 501   0  0.4396324686309972E+01 -0.1617868590080392E+01  0.1001550553394369E+04  0.1001550553394369E+04  0.4684567164875234E+01 0.  9
  -2 -1 0 0   0 502 -0.3026395606394424E+01  0.4614828411635783E+00 -0.2887225135815314E+01  0.2887225135815314E+01  0.3061378248288160E+01 0.  9
 -13 +1 1 2   0   0  0.3516518739373996E+02  0.2608091325090241E+02  0.6780717663963816E+03  0.6794837193225067E+03  0.0000000000000000E+00 0. -1
  13 +1 1 2   0   0 -0.3690129624304708E+02 -0.1768593904924894E+02  0.2867006984497154E+03  0.2896062647734429E+03  0.0000000000000000E+00 0.  1
  21 +1 1 2 501 502  0.3106037929222674E+01 -0.9551359950570287E+01  0.3389086341245707E+02  0.3534779443423520E+02  0.0000000000000000E+00 0.  1
   #pdf1pdf2  0.4790129557090090E-04
</event>
<event>
  5  26  0.2401515482509494E+02  0.9175723804091348E+02  0.7546888109483510E-02  0.1178890309921375E+00
   2 -1 0 0 501   0 -0.1780308370925228E+02 -0.4226846068526912E+00  0.1313927441771853E+04  0.1313927441771853E+04  0.1780810073633666E+02 0.  9
  -2 -1 0 0   0 502 -0.1377254838722796E+02 -0.3101451685375760E+02 -0.1699459641297357E+01  0.1699459641297357E+01  0.3393498703035775E+02 0.  9
 -13 +1 1 2   0   0  0.1050393612343901E+02 -0.2639359548106053E+02  0.8919228295511263E+03  0.8923750828160715E+03  0.0000000000000000E+00 0. -1
  13 +1 1 2   0   0 -0.3825163108121159E+02  0.4414185037329620E+01  0.2895319448063523E+03  0.2920811862706421E+03  0.0000000000000000E+00 0.  1
  21 +1 1 2 501 502 -0.3827937138707650E+01 -0.9457791016879384E+01  0.1307732077730766E+03  0.1311706323264362E+03  0.0000000000000000E+00 0.  1
   #pdf1pdf2  0.2372927603402582E-08
</event>
<event>
  5  27  0.2401515482509494E+02  0.9223842166277379E+02  0.7546888109483510E-02  0.1177961886624017E+00
   1 -1 0 0 501   0  0.1281838701155591E+01 -0.3736439920890263E+01  0.7851383062404184E+03  0.7851383062404184E+03  0.3950201733861537E+01 0.  9
  -1 -1 0 0   0 502  0.4047269157902589E+00  0.1850997523737432E+01 -0.3559383248929682E+01  0.3559383248929682E+01  0.1894728399862946E+01 0.  9
 -13 +1 1 2   0   0 -0.1702619397887338E+02 -0.4159246395387710E+02  0.1912082125225945E+03  0.1964189524339401E+03  0.0000000000000000E+00 0. -1
  13 +1 1 2   0   0  0.2030754342012475E+02  0.2591951720846056E+02  0.4580864865448764E+03  0.4592683821548237E+03  0.0000000000000000E+00 0.  1
  21 +1 1 2 501 502 -0.1594783824305515E+01  0.1378750434826371E+02  0.1322842239240179E+03  0.1330103549005842E+03  0.0000000000000000E+00 0.  1
   #pdf1pdf2  0.6803319957083602E-04
</event>
<event>
  5   1  0.2401515482509494E+02  0.9362159560105516E+02  0.7546888109483510E-02  0.1175328038303259E+00
   2 -1 0 0 502   0  0.4085767692040410E+00  0.5724641857017557E+00  0.2107649800807878E+04  0.2107649800807878E+04  0.7033137423969379E+00 0.  9
  21 -1 0 0 501 502  0.3499517809049051E+02 -0.2516816334024007E+02 -0.1917596902451253E+01  0.1917596902451253E+01  0.4310567173245478E+02 0.  9
 -13 +1 1 2   0   0  0.7461958340912378E+01  0.2955007280634367E+02  0.2340253405978833E+03  0.2360015840351437E+03  0.0000000000000000E+00 0.  1
  13 +1 1 2   0   0  0.2869410716002169E+02 -0.3295262749512157E+02  0.1699011880959513E+04  0.1699573652151070E+04  0.0000000000000000E+00 0. -1
   2 +1 1 2 501   0 -0.7523106412395180E+00 -0.2119314446576042E+02  0.1726949823480304E+03  0.1739921615241159E+03  0.0000000000000000E+00 0. -1
   #pdf1pdf2  0.5105956816913813E-04
</event>
<event>
  5  26  0.2401515482509494E+02  0.9189775013048798E+02  0.7546888109483510E-02  0.1178618540307673E+00
   2 -1 0 0 501   0  0.4926613308895211E+00 -0.6650766774088455E+00  0.6597026976976567E+03  0.6597026976976567E+03  0.8276727455866985E+00 0.  9
  -2 -1 0 0   0 502 -0.1287607095234458E+02  0.6719250168272136E+01 -0.4866834369220391E+01  0.4866834369220391E+01  0.1452382614856143E+02 0.  9
 -13 +1 1 2   0   0 -0.3843732908217622E+02 -0.1759906199986252E+02  0.1390368334261631E+03  0.1453216993412242E+03  0.0000000000000000E+00 0. -1
  13 +1 1 2   0   0  0.3218379606133600E+02  0.3326225587091231E+02  0.3483417326038100E+03  0.3514030976926128E+03  0.0000000000000000E+00 0.  1
  21 +1 1 2 501 502 -0.6129876600614832E+01 -0.9609020380186490E+01  0.1674572972984632E+03  0.1678447350330403E+03  0.0000000000000000E+00 0. -1
   #pdf1pdf2  0.7335497663438875E-04
</event>
<event>
  5  26  0.2401515482509494E+02  0.9227987528710941E+02  0.7546888109483510E-02  0.1177882200284088E+00
   2 -1 0 0 501   0 -0.7435168184599733E+00 -0.3681434267930151E+00  0.1553609231249156E+04  0.1553609231249156E+04  0.8296667053846050E+00 0.  9
  -2 -1 0 0   0 502 -0.2830850643851529E+02 -0.3148579929332281E+02 -0.2204988162299107E+01  0.2204988162299107E+01  0.4234060809576156E+02 0.  9
 -13 +1 1 2   0   0 -0.5410161511405353E+02 -0.4013623143212457E+02  0.6392155863794102E+03  0.6427553715854076E+03  0.0000000000000000E+00 0.  1
  13 +1 1 2   0   0  0.1509064043832993E+02  0.1833747893415159E+02  0.6975372053036450E+03  0.6979413609647438E+03  0.0000000000000000E+00 0. -1
  21 +1 1 2 501 502  0.9958951418748331E+01 -0.1005519022214285E+02  0.2146514514038020E+03  0.2151174868613038E+03  0.0000000000000000E+00 0.  1
   #pdf1pdf2  0.3338115519363366E-05
</event>
<event>
  5  28  0.2401515482509494E+02  0.9359632470659928E+02  0.7546888109483510E-02  0.1175375701440038E+00
   3 -1 0 0 501   0 -0.2106293001467231E+01 -0.1114721584451648E+01  0.5841229003346131E+03  0.5841229003346131E+03  0.2383080867044219E+01 0.  9
  -3 -1 0 0   0 502  0.2234716255437340E+01  0.1944785628728398E+01 -0.5648667581936847E+01  0.5648667581936847E+01  0.2962456393607237E+01 0.  9
 -13 +1 1 2   0   0 -0.3361394690039467E+02  0.7940522290685450E+01  0.2389860495994376E+03  0.2414690067557662E+03  0.0000000000000000E+00 0. -1
  13 +1 1 2   0   0  0.5483325608942029E+02 -0.7508842254178241E+01  0.2132941511437168E+03  0.2203575812117314E+03  0.0000000000000000E+00 0.  1
  21 +1 1 2 501 502 -0.2109088593505551E+02  0.3983840077695396E+00  0.1261940320095218E+03  0.1279449799490523E+03  0.0000000000000000E+00 0.  1
   #pdf1pdf2  0.1554853311009215E-04
</event>
<event>
  5   1  0.2401515482509494E+02  0.9306908534738291E+02  0.7546888109483510E-02  0.1176373981925979E+00
   2 -1 0 0 502   0 -0.6019550499197777E+00  0.1456578059295379E+01  0.1289627215704906E+04  0.1289627215704906E+04  0.1576061396311899E+01 0.  9
  21 -1 0 0 501 502  0.4085963002495661E+01 -0.4226701677240653E+00 -0.2822028279204416E+01  0.2822028279204416E+01  0.4107766269938840E+01 0.  9
 -13 +1 1 2   0   0 -0.4890542282855152E+02 -0.1767908130109865E+01  0.5482915955568735E+03  0.5504711978291854E+03  0.0000000000000000E+00 0.  1
  13 +1 1 2   0   0  0.3826551022701045E+02  0.1492954030694751E+02  0.6604240333755272E+03  0.6617001165986823E+03  0.0000000000000000E+00 0. -1
   2 +1 1 2 501   0  0.1412392055411695E+02 -0.1212772428526633E+02  0.7808955849330073E+02  0.8027792955624281E+02  0.0000000000000000E+00 0. -1
   #pdf1pdf2  0.3203449898640865E-02
</event>
<event>
  5  27  0.2401515482509494E+02  0.9186622465937354E+02  0.7546888109483510E-02  0.1178679467544256E+00
   1 -1 0 0 501   0  0.1133025765569357E+01  0.6362630469664240E+00  0.6065503538037681E+03  0.6065503538037681E+03  0.1299452981211335E+01 0.  9
  -1 -1 0 0   0 502  0.1319512633847654E+02 -0.1191690317229338E+01 -0.4374590233841699E+01  0.4374590233841699E+01  0.1324882956719331E+02 0.  9
 -13 +1 1 2   0   0 -0.1299972181695464E+02 -0.2903773986997099E+02  0.7828696373191450E+02  0.8450462587596259E+02  0.0000000000000000E+00 0.  1
  13 +1 1 2   0   0  0.1806569775366837E+02  0.3467323390205042E+02  0.4501482962400230E+03  0.4518429939617839E+03  0.0000000000000000E+00 0. -1
  21 +1 1 2 501 502  0.9262176167332177E+01 -0.6190921302342342E+01  0.7374050359798889E+02  0.7457732419986323E+02  0.0000000000000000E+00 0. -1
   #pdf1pdf2  0.2793839072229921E-04
</event>
<event>
  5  26  0.2401515482509494E+02  0.9777945020153527E+02  0.7546888109483510E-02  0.1167707995249973E+00
   2 -1 0 0 501   0 -0.5552904805725918E-02  0.1227107233196647E+01  0.6020285549880338E+03  0.6020285549880338E+03  0.1227119797132828E+01 0.  9
  -2 -1 0 0   0 502  0.1391828598633523E+02 -0.1703011352691536E+02 -0.8892262149111486E+01  0.8892262149111486E+01  0.2199416858026330E+02 0.  9
 -13 +1 1 2   0   0  0.1374364892810614E+02 -0.7176699237116502E+02  0.3192880303952927E+03  0.3275427230661173E+03  0.0000000000000000E+00 0. -1
  13 +1 1 2   0   0  0.1928254275420004E+02  0.2629567364160133E+02  0.1836275518283837E+03  0.1865002860529144E+03  0.0000000000000000E+00 0.  1
  21 +1 1 2 501 502 -0.1911345860077668E+02  0.2966831243584497E+02  0.9022071061524588E+02  0.9687780801811351E+02  0.0000000000000000E+00 0. -1
   #pdf1pdf2  0.1233506081951805E-04
</event>
<event>
  5  26  0.2401515482509494E+02  0.9208562234126252E+02  0.7546888109483510E-02  0.1178256018235945E+00
   2 -1 0 0 501   0 -0.1133003441072056E+02  0.5022736082631424E+01  0.6312496312481680E+03  0.6312496312481680E+03  0.1239344816844286E+02 0.  9
  -2 -1 0 0   0 502  0.2730710636946939E+02 -0.9926507625623387E+01 -0.4792100485812551E+01  0.4792100485812551E+01  0.2905535427275109E+02 0.  9
 -13 +1 1 2   0   0  0.4026623671149530E+02 -0.2461524108693776E+02  0.2734314087439022E+03  0.2774743505269436E+03  0.0000000000000000E+00 0. -1
  13 +1 1 2   0   0 -0.3166256827270368E+02  0.3020465510742044E+02  0.1872140729886508E+03  0.1922601064828107E+03  0.0000000000000000E+00 0.  1
  21 +1 1 2 501 502  0.7373403519957218E+01 -0.1049318556347465E+02  0.1658120490298025E+03  0.1663072747242262E+03  0.0000000000000000E+00 0. -1
   #pdf1pdf2  0.3977754627095458E-07
</event>
<event>
  5   2  0.2401515482509494E+02  0.1500361508997838E+03  0.7546888109483510E-02  0.1097703405980033E+00
   1 -1 0 0 502   0 -0.6245361366832118E+00  0.1174281992780656E+01  0.1004591720317684E+04  0.1004591720317684E+04  0.1330031422407794E+01 0.  9
  21 -1 0 0 501 502  0.1053557455601374E+02  0.9312615079779157E+01 -0.1853990364245506E+02  0.1853990364245506E+02  0.1406140572096027E+02 0.  9
 -13 +1 1 2   0   0  0.1213419829885154E+03 -0.6557792029192406E+01  0.6360050039582829E+03  0.6475100358541624E+03  0.0000000000000000E+00 0. -1
  13 +1 1 2   0   0  0.3330749199618168E+01 -0.1497581059606916E+02  0.6276726349360001E+02  0.6461499949481627E+02  0.0000000000000000E+00 0.  1
   1 +1 1 2 501   0 -0.1147616937688030E+03  0.3202049969782138E+02  0.2872795492233463E+03  0.3110065886111607E+03  0.0000000000000000E+00 0. -1
   #pdf1pdf2  0.1205786569753398E-03
</event>
<event>
  5   1  0.2401515482509494E+02  0.9739244486425035E+02  0.7546888109483510E-02  0.1168399171420716E+00
   2 -1 0 0 502   0  0.9970822206226288E+01 -0.1676630185277616E+02  0.5101442170125721E+03  0.5101442170125721E+03  0.1950708008100086E+02 0.  9
  21 -1 0 0 501 502 -0.1273649247968206E+02 -0.1396092026470910E+02 -0.9481721092393231E+01  0.9481721092393231E+01  0.1889776535261677E+02 0.  9
 -13 +1 1 2   0   0 -0.2987238321957691E+02 -0.2251167934501876E+02  0.2089504620981547E+03  0.2122720673974383E+03  0.0000000000000000E+00 0. -1
  13 +1 1 2   0   0  0.6036761534584107E+02 -0.1619757690872215E+02  0.1820071007512724E+03  0.1924401080963665E+03  0.0000000000000000E+00 0.  1
   2 +1 1 2 501   0 -0.3326090239971992E+02  0.7982034136255649E+01  0.1097049330707517E+03  0.1149137626111606E+03  0.0000000000000000E+00 0. -1
   #pdf1pdf2  0.6507025574849203E-06
</event>
<event>
  5   1  0.2401515482509494E+02  0.9647247821720617E+02  0.7546888109483510E-02  0.1170056771164637E+00
   2 -1 0 0 502   0 -0.1884300616023650E+00  0.3838568648488047E+00  0.7905776741432907E+03  0.7905776741432907E+03  0.4276119511976070E+00 0.  9
  21 -1 0 0 501 502  0.1333602468966904E+02  0.2691766573140798E+00 -0.6485057955581379E+01  0.6485057955581379E+01  0.1333874096743411E+02 0.  9
 -13 +1 1 2   0   0  0.4382556502479692E+02  0.1957415000287870E+01  0.2000436419593459E+03  0.2047973884393672E+03  0.0000000000000000E+00 0. -1
  13 +1 1 2   0   0 -0.3014416246490579E+02  0.3018158814679274E+02  0.5102321257799366E+03  0.5120121297114808E+03  0.0000000000000000E+00 0.  1
   2 +1 1 2 501   0 -0.5338079318244571E+00 -0.3148596962491773E+02  0.7381684844842675E+02  0.8025321394802407E+02  0.0000000000000000E+00 0. -1
   #pdf1pdf2  0.2544297137682297E-02
</event>
<event>
  5   1  0.2401515482509494E+02  0.9521520699866257E+02  0.7546888109483510E-02  0.1172355951610045E+00
   2 -1 0 0 502   0 -0.6531289492471636E+00  0.1251095864804100E+01  0.2381076664233630E+04  0.2381076664233630E+04  0.1411317925654819E+01 0.  9
  21 -1 0 0 501 502 -0.6144993591567310E+02 -0.3297331137302642E+02 -0.2856502756131675E+01  0.2856502756131675E+01  0.6973760740764544E+02 0.  9
 -13 +1 1 2   0   0 -0.3933779479774028E+02 -0.3127351706638192E+02  0.2767703172115491E+03  0.2812957579819360E+03  0.0000000000000000E+00 0.  1
  13 +1 1 2   0   0 -0.3197728844513092E+02  0.2535414136238378E+02  0.9736995062347046E+03  0.9745543124435059E+03  0.0000000000000000E+00 0. -1
   2 +1 1 2 501   0  0.9212018377950933E+01 -0.2580283980422417E+02  0.1127750338031244E+04  0.1128083096564320E+04  0.0000000000000000E+00 0. -1
   #pdf1pdf2  0.9156780866066630E-06
</event>
<event>
  5  21  0.2401515482509494E+02  0.9175443661437161E+02  0.7546888109483510E-02  0.1178895733800510E+00
  -2 -1 0 0   0 502  0.3383999454524883E+01 -0.7088471620502036E+01  0.6825765433755246E+03  0.6825765433755246E+03  0.7854799947986420E+01 0.  9
   2 -1 0 0 501   0  0.1301668315033788E+01 -0.4604957015922840E+01 -0.4368534730428402E+01  0.4368534730428402E+01  0.4785391261000492E+01 0.  9
 -13 +1 1 2   0   0 -0.2033743534817084E+02  0.2055733993733977E+02  0.4964452596714013E+03  0.4972867496244451E+03  0.0000000000000000E+00 0.  1
  13 +1 1 2   0   0  0.1484865188592184E+02 -0.3251413393274066E+02  0.8296062304839506E+02  0.9033336230210512E+02  0.0000000000000000E+00 0. -1
  21 +1 1 2 501 502  0.1017445123180767E+02  0.2633653589760112E+00  0.9880212592529968E+02  0.9932496617940282E+02  0.0000000000000000E+00 0. -1
   #pdf1pdf2  0.5161583383650912E-06
</event>
<event>
  5  26  0.2401515482509494E+02  0.9196371299358539E+02  0.7546888109483510E-02  0.1178491146604823E+00
   2 -1 0 0 501   0  0.2767873161421844E+01  0.1137154184109314E+00  0.9118143750946234E+03  0.9118143750946234E+03  0.2770208121081109E+01 0.  9
  -2 -1 0 0   0 502  0.2708908825358488E+01 -0.5782200854755451E+01 -0.3021373494150168E+01  0.3021373494150168E+01  0.6385298250578415E+01 0.  9
 -13 +1 1 2   0   0  0.2018152745995221E+02 -0.2169293232272481E+02  0.6867523998177510E+03  0.6873912539586281E+03  0.0000000000000000E+00 0. -1
  13 +1 1 2   0   0 -0.2211210117827999E+02  0.6688078760360927E+01  0.5098834808865229E+02  0.5597755851082515E+02  0.0000000000000000E+00 0.  1
  21 +1 1 2 501 502  0.7407355705108110E+01  0.9336368126019362E+01  0.1710522536940700E+03  0.1714669361193202E+03  0.0000000000000000E+00 0. -1
   #pdf1pdf2  0.6018454732900353E-04
</event>
<event>
  5   2  0.2401515482509494E+02  0.9354274315297016E+02  0.7546888109483510E-02  0.1175476816756087E+00
   1 -1 0 0 502   0  0.2116552838093815E+00  0.3294314116810080E+00  0.7273102438837727E+03  0.7273102438837727E+03  0.3915648275401809E+00 0.  9
  21 -1 0 0 501 502  0.4830076771454652E+01  0.2245777077973006E+02 -0.4551792215544226E+01  0.4551792215544226E+01  0.2297131058544643E+02 0.  9
 -13 +1 1 2   0   0  0.2887830829853398E+02  0.1477698846647997E+01  0.7961217298505233E+02  0.8470087586010227E+02  0.0000000000000000E+00 0.  1
  13 +1 1 2   0   0 -0.4468648790641598E+02  0.2179752074358774E+02  0.5062077633536079E+03  0.5086436019369945E+03  0.0000000000000000E+00 0. -1
   1 +1 1 2 501   0  0.2084991166314604E+02 -0.4880173988246668E+00  0.1369385153295683E+03  0.1385175583022202E+03  0.0000000000000000E+00 0. -1
   #pdf1pdf2  0.5297685074917177E-03
</event>
<event>
  5  11  0.2401515482509494E+02  0.9205963348557425E+02  0.7546888109483510E-02  0.1178306109146423E+00
  -2 -1 0 0   0 501  0.2190588424932796E+01 -0.5914657072787877E+00  0.1086243452877838E+04  0.1086243452877838E+04  0.2269032686044066E+01 0.  9
  21 -1 0 0 501 502  0.1338436856065645E+02  0.1213248694850518E+01 -0.2849550187341057E+01  0.2849550187341057E+01  0.1343924455328666E+02 0.  9
 -13 +1 1 2   0   0  0.4364897509404960E+02  0.3721452189166435E+02  0.6834472793045175E+03  0.6858500836590554E+03  0.0000000000000000E+00 0.  1
  13 +1 1 2   0   0 -0.2577080768520245E+02 -0.2416762240546522E+02  0.3476763194474954E+03  0.3494667818348944E+03  0.0000000000000000E+00 0. -1
  -2 +1 1 2   0 502 -0.2303210423257909E+01 -0.1242511649862739E+02  0.5227030393848372E+02  0.5377613757122887E+02  0.0000000000000000E+00 0. -1
   #pdf1pdf2  0.1188964308821482E-04
</event>
<event>
  5  27  0.2401515482509494E+02  0.9227309816402042E+02  0.7546888109483510E-02  0.1177895224749645E+00
   1 -1 0 0 501   0  0.4711605628744120E+00 -0.1384633502854703E+00  0.1894165829381752E+04  0.1894165829381752E+04  0.4910848963065446E+00 0.  9
  -1 -1 0 0   0 502  0.3252755270610436E+02 -0.3609309389886185E+01 -0.1478783893173056E+01  0.1478783893173056E+01  0.3272718746425238E+02 0.  9
 -13 +1 1 2   0   0  0.4988702305938871E+02  0.9555756472578366E+01  0.6808771016608738E+03  0.6827691082039397E+03  0.0000000000000000E+00 0.  1
  13 +1 1 2   0   0 -0.2592353967910390E+02 -0.2413872401512447E+02  0.9771797140057478E+03  0.9778215079302190E+03  0.0000000000000000E+00 0. -1
  21 +1 1 2 501 502  0.9035229888693962E+01  0.1083519480237445E+02  0.2346302298219568E+03  0.2350539971407660E+03  0.0000000000000000E+00 0.  1
   #pdf1pdf2  0.2507152917725391E-05
</event>
<event>
  5   1  0.2401515482509494E+02  0.9597464017048752E+02  0.7546888109483510E-02  0.1170962447206484E+00
   2 -1 0 0 502   0 -0.9902475253651113E+00 -0.1263208262636651E+01  0.4371663272423523E+03  0.4371663272423523E+03  0.1605081080906891E+01 0.  9
  21 -1 0 0 501 502  0.8266770983887714E+01  0.1301374694317767E+01 -0.8978633690787216E+01  0.8978633690787216E+01  0.8368576856016709E+01 0.  9
 -13 +1 1 2   0   0 -0.4334550336753382E+02  0.3527074429010775E+02  0.1470981832343051E+03  0.1573554370709708E+03  0.0000000000000000E+00 0.  1
  13 +1 1 2   0   0  0.2128176837937690E+02 -0.2931709217282066E+02  0.1466171804693042E+03  0.1510264982299186E+03  0.0000000000000000E+00 0. -1
   2 +1 1 2 501   0  0.2934025844667953E+02 -0.5915485685605978E+01  0.1344723298479558E+03  0.1377630256322500E+03  0.0000000000000000E+00 0. -1
   #pdf1pdf2  0.1408237385117363E-02
</event>
<event>
  5  26  0.2401515482509494E+02  0.9183527457783075E+02  0.7546888109483510E-02  0.1178739309387232E+00
   2 -1 0 0 501   0 -0.1427149386845768E+00  0.1323913129631085E+01  0.1426828080575225E+04  0.1426828080575225E+04  0.1331583091111222E+01 0.  9
  -2 -1 0 0   0 502  0.6023683800004906E+01 -0.1206578837413696E+02 -0.2133159947661960E+01  0.2133159947661960E+01  0.1348584500919020E+02 0.  9
 -13 +1 1 2   0   0  0.3280536808237717E+02  0.1474103781628464E+01  0.2065433342115030E+03  0.2091375481930107E+03  0.0000000000000000E+00 0.  1
  13 +1 1 2   0   0 -0.2839032465325219E+02 -0.2299934121854954E+02  0.1164830791898752E+04  0.1165403687134153E+04  0.0000000000000000E+00 0. -1
  21 +1 1 2 501 502  0.1465925432195349E+01  0.1078336219241520E+02  0.5332079451730806E+02  0.5442000519572334E+02  0.0000000000000000E+00 0.  1
   #pdf1pdf2  0.3600680752652341E-04
</event>
<event>
  5  26  0.2401515482509494E+02  0.9194103664485164E+02  0.7546888109483510E-02  0.1178534927815287E+00
   2 -1 0 0 501   0 -0.1288821797129192E+01 -0.1039619479805853E+01  0.7071229006039182E+03  0.7071229006039182E+03  0.1655859380366314E+01 0.  9
  -2 -1 0 0   0 502 -0.1812742826134251E+01  0.3511971594949240E-01 -0.3549018441260406E+01  0.3549018441260406E+01  0.1813082995383710E+01 0.  9
 -13 +1 1 2   0   0 -0.3445932089458658E+02  0.3359255118010103E+02  0.3368805643498025E+03  0.3403004832907900E+03  0.0000000000000000E+00 0. -1
  13 +1 1 2   0   0  0.2545477187016247E+02 -0.2444711620280724E+02  0.1874248219465654E+03  0.1907188265046147E+03  0.0000000000000000E+00 0.  1
  21 +1 1 2 501 502  0.5902984401160666E+01 -0.1014993474115015E+02  0.1792684958662899E+03  0.1796526092497739E+03  0.0000000000000000E+00 0.  1
   #pdf1pdf2  0.1193217547208497E-02
</event>
<event>
  5  26  0.2401515482509494E+02  0.9176343248146128E+02  0.7546888109483510E-02  0.1178878317552093E+00
   2 -1 0 0 501   0 -0.4582646842237176E+01 -0.4696430123954306E+01  0.6501449269185334E+03  0.6501449269185334E+03  0.6561791522888533E+01 0.  9
  -2 -1 0 0   0 502 -0.1050184215942971E+01  0.4663021465799566E+00 -0.4042289028691545E+01  0.4042289028691545E+01  0.1149053775643607E+01 0.  9
 -13 +1 1 2   0   0  0.4673343638270938E+02 -0.3078758806392763E+01  0.3119502806748994E+03  0.3154464620899610E+03  0.0000000000000000E+00 0. -1
  13 +1 1 2   0   0 -0.4389900106666560E+02 -0.6943184230843446E+01  0.2917006598795296E+03  0.2950671196119072E+03  0.0000000000000000E+00 0.  1
  21 +1 1 2 501 502 -0.8467266374223925E+01  0.5791815059861860E+01  0.4245169733541286E+02  0.4367363424535683E+02  0.0000000000000000E+00 0. -1
   #pdf1pdf2  0.7942142676529474E-04
</event>
<event>
  5  23  0.2401515482509494E+02  0.9269697423703792E+02  0.7546888109483510E-02  0.1177083009446545E+00
  -3 -1 0 0   0 502 -0.1346312964839238E+01  0.5027226777882178E+00  0.6491630082105078E+03  0.6491630082105078E+03  0.1437111230927089E+01 0.  9
   3 -1 0 0 501   0  0.6564555048462446E+00 -0.1924024901835341E+00 -0.4889248085039862E+01  0.4889248085039862E+01  0.6840705724351566E+00 0.  9
 -13 +1 1 2   0   0  0.4487072512651436E+02 -0.9452496159736210E+01  0.3914015033101404E+03  0.3940785054408155E+03  0.0000000000000000E+00 0.  1
  13 +1 1 2   0   0 -0.2953128260291499E+02  0.5234819494638762E+01  0.6760224271908828E+02  0.7395649537373444E+02  0.0000000000000000E+00 0. -1
  21 +1 1 2 501 502 -0.1602929998359236E+02  0.4527996852702132E+01  0.1852700140962392E+03  0.1860172554809977E+03  0.0000000000000000E+00 0.  1
   #pdf1pdf2  0.1102797674559275E-03
</event>
<event>
  5  26  0.2401515482509494E+02  0.9287541454637208E+02  0.7546888109483510E-02  0.1176742541772691E+00
   2 -1 0 0 501   0 -0.1379130559537960E+01 -0.1549401446807145E+01  0.9058402348494152E+03  0.9058402348494152E+03  0.2074282030877084E+01 0.  9
  -2 -1 0 0   0 502 -0.5298595106849119E+01 -0.2899838872647271E+01 -0.4448539056752636E+01  0.4448539056752636E+01  0.6040213207631137E+01 0.  9
 -13 +1 1 2   0   0 -0.2119340571170842E+02 -0.3594257866353158E+02  0.3262355903116733E+03  0.3288931282235176E+03  0.0000000000000000E+00 0. -1
  13 +1 1 2   0   0  0.1146797325986500E+02  0.4885036260719176E+02  0.5373083474939556E+03  0.5396463032618943E+03  0.0000000000000000E+00 0.  1
  21 +1 1 2 501 502  0.3047706785456338E+01 -0.1735702426311460E+02  0.3784775798703356E+02  0.4174934242075590E+02  0.0000000000000000E+00 0.  1
   #pdf1pdf2  0.1092034136550345E-03
</event>
<event>
  5   2  0.2401515482509494E+02  0.9177149745172922E+02  0.7546888109483510E-02  0.1178862705445188E+00
   1 -1 0 0 502   0  0.4143648271798769E+00 -0.1906789550582305E+00  0.1027991540427005E+04  0.1027991540427005E+04  0.4561322986874620E+00 0.  9
  21 -1 0 0 501 502 -0.2968420647933554E+02 -0.2666227143955509E+02 -0.3254824116614930E+01  0.3254824116614930E+01  0.3990023599710083E+02 0.  9
 -13 +1 1 2   0   0 -0.5221244170767590E+02  0.2398822662258814E+01  0.4619241415669945E+03  0.4648718167211766E+03  0.0000000000000000E+00 0.  1
  13 +1 1 2   0   0  0.3324293092428125E+02 -0.2846240033958757E+02  0.2823165357293594E+03  0.2856883389915558E+03  0.0000000000000000E+00 0. -1
   1 +1 1 2 501   0 -0.1030033086876101E+02 -0.7893727172845644E+00  0.2804960390140361E+03  0.2806862088308872E+03  0.0000000000000000E+00 0. -1
   #pdf1pdf2  0.1310225484453505E-03
</event>
<event>
  5   1  0.2401515482509494E+02  0.9233668326493718E+02  0.7546888109483510E-02  0.1177773074328633E+00
   2 -1 0 0 502   0 -0.6607859373247339E-01  0.6838112130395296E+00  0.6150253227338595E+03  0.6150253227338595E+03  0.6869964742473241E+00 0.  9
  21 -1 0 0 501 502 -0.2943993622164998E+01  0.2173794203972183E+01 -0.5344757822490880E+01  0.5344757822490880E+01  0.3659573703120522E+01 0.  9
 -13 +1 1 2   0   0  0.3330584740051707E+02  0.3604783481124085E+02  0.1873100385896599E+03  0.1936330974345680E+03  0.0000000000000000E+00 0.  1
  13 +1 1 2   0   0 -0.2180819201258115E+02 -0.3373895236832600E+02  0.3761687106413151E+03  0.3783078283769968E+03  0.0000000000000000E+00 0. -1
   2 +1 1 2 501   0 -0.1450772760383339E+02  0.5487229740968638E+00  0.4620181568039357E+02  0.4842915474478562E+02  0.0000000000000000E+00 0. -1
   #pdf1pdf2  0.1278523711759039E-01
</event>
<event>
  5  26  0.2401515482509494E+02  0.9229331148111143E+02  0.7546888109483510E-02  0.1177856381930463E+00
   2 -1 0 0 501   0  0.7618562699981588E+00 -0.1087267011218633E+01  0.9544534749140387E+03  0.9544534749140387E+03  0.1327619873992479E+01 0.  9
  -2 -1 0 0   0 502 -0.5598386083512564E+01 -0.6471598242268679E+01 -0.4245288137453789E+01  0.4245288137453789E+01  0.8557073714150311E+01 0.  9
 -13 +1 1 2   0   0 -0.3027453356528409E+00 -0.4696887824665526E+02  0.1456529035542328E+03  0.1530389999061221E+03  0.0000000000000000E+00 0.  1
  13 +1 1 2   0   0 -0.8496531115275291E+01  0.2573287279511765E+02  0.4466608674408133E+03  0.4474821809706642E+03  0.0000000000000000E+00 0. -1
  21 +1 1 2 501 502  0.3962746637413726E+01  0.1367714019805029E+02  0.3578944157815387E+03  0.3581775821747061E+03  0.0000000000000000E+00 0.  1
   #pdf1pdf2  0.1214313327509982E-03
</event>
<event>
  5   2  0.2401515482509494E+02  0.1110648749302522E+03  0.7546888109483510E-02  0.1145948261721511E+00
   1 -1 0 0 502   0 -0.5919400138646826E+00 -0.5661417275895251E+00  0.1391648869639922E+04  0.1391648869639922E+04  0.8190906150922331E+00 0.  9
  21 -1 0 0 501 502 -0.7545742194741980E+02 -0.3907288852544287E+02 -0.5692875251608856E+01  0.5692875251608856E+01  0.8497360263442192E+02 0.  9
 -13 +1 1 2   0   0  0.1879219032346857E+02 -0.9365258570991898E+01  0.7332718805178646E+02  0.7627405189733307E+02  0.0000000000000000E+00 0.  1
  13 +1 1 2   0   0 -0.7926129326252747E+02  0.3118657450013560E+02  0.6982773398692387E+03  0.7034530534538615E+03  0.0000000000000000E+00 0. -1
   1 +1 1 2 501   0 -0.1558025902222559E+02 -0.6146034618217610E+02  0.6143514664672875E+03  0.6176146395403362E+03  0.0000000000000000E+00 0. -1
   #pdf1pdf2  0.3796437936509930E-05
</event>
<event>
  5  26  0.2401515482509494E+02  0.9241408148236530E+02  0.7546888109483510E-02  0.1177624536664590E+00
   2 -1 0 0 501   0 -0.9274102870466656E-01  0.9684958593540822E+00  0.1377227716264703E+04  0.1377227716264703E+04  0.9729260650178934E+00 0.  9
  -2 -1 0 0   0 502 -0.8397099448084703E+01  0.1726304789269673E+02 -0.1529186635618333E+01  0.1529186635618333E+01  0.1919698157749195E+02 0.  9
 -13 +1 1 2   0   0 -0.2071497063250429E+02  0.1955625952298521E+02  0.1184523378635485E+04  0.1184865896137137E+04  0.0000000000000000E+00 0. -1
  13 +1 1 2   0   0  0.5956192098806817E+01 -0.1495464800216375E+02  0.1252613172354866E+03  0.1262913905092335E+03  0.0000000000000000E+00 0.  1
  21 +1 1 2 501 502  0.6268938056908100E+01  0.1362993223122935E+02  0.6591383375811301E+02  0.6759961625395083E+02  0.0000000000000000E+00 0. -1
   #pdf1pdf2  0.3288479577065916E-04
</event>
<event>
  5   2  0.2401515482509494E+02  0.9180831672703755E+02  0.7546888109483510E-02  0.1178791453780719E+00
   1 -1 0 0 502   0  0.2724429289571852E+01  0.1433724155429965E+01  0.1503946986425764E+04  0.1503946986425764E+04  0.3078649039390550E+01 0.  9
  21 -1 0 0 501 502 -0.5847041904951121E+00  0.5299555722675499E+01 -0.1565020616925776E+01  0.1565020616925776E+01  0.5331713593970063E+01 0.  9
 -13 +1 1 2   0   0 -0.3873838189507359E+02 -0.1490837604173533E+02  0.9436202039534280E+03  0.9445326946258448E+03  0.0000000000000000E+00 0. -1
  13 +1 1 2   0   0  0.3687077516537053E+02  0.1177147392424967E+02  0.4032754485574212E+03  0.4051285093261567E+03  0.0000000000000000E+00 0.  1
   1 +1 1 2 501   0  0.4007331828779794E+01  0.9870181995591127E+01  0.1554863132979895E+03  0.1558508030906885E+03  0.0000000000000000E+00 0. -1
   #pdf1pdf2  0.1453943389377039E-03
</event>
<event>
  5  26  0.2401515482509494E+02  0.9312320711093030E+02  0.7546888109483510E-02  0.1176271166499620E+00
   2 -1 0 0 501   0 -0.1126195793501326E+01  0.9199622260345766E+00  0.1456363060013947E+04  0.1456363060013947E+04  0.1454182747329432E+01 0.  9
  -2 -1 0 0   0 502 -0.1104320746515291E+02  0.1114950182110777E+02 -0.2843929631883484E+01  0.2843929631883484E+01  0.1569279522511189E+02 0.  9
 -13 +1 1 2   0   0 -0.3936691380794411E+02  0.8937542149533975E+00  0.2247916462774203E+03  0.2282144538268154E+03  0.0000000000000000E+00 0.  1
  13 +1 1 2   0   0  0.4553540356381782E+02  0.6662887746958099E+01  0.5254210296716686E+03  0.5274325790772549E+03  0.0000000000000000E+00 0. -1
  21 +1 1 2 501 502 -0.1833789301452796E+02  0.4512822085230846E+01  0.7033064544329743E+03  0.7035599567417596E+03  0.0000000000000000E+00 0. -1
   #pdf1pdf2  0.1818481524504549E-04
</event>
<event>
  5   1  0.2401515482509494E+02  0.9722808088444796E+02  0.7546888109483510E-02  0.1168693812624013E+00
   2 -1 0 0 502   0  0.5209134850544236E+00 -0.8159482777836854E+00  0.1476022439346224E+04  0.1476022439346224E+04  0.9680508514172732E+00 0.  9
  21 -1 0 0 501 502 -0.3841028114646213E+02 -0.1301959558598835E+01 -0.3810607722838793E+01  0.3810607722838793E+01  0.3843234050175049E+02 0.  9
 -13 +1 1 2   0   0 -0.4805123247080129E+02 -0.5015348823160649E+02  0.7256502046031522E+03  0.7289667432498945E+03  0.0000000000000000E+00 0. -1
  13 +1 1 2   0   0 -0.2266573969433231E+02  0.4026639280708365E+02  0.4653607581090572E+03  0.4676491776250890E+03  0.0000000000000000E+00 0.  1
   2 +1 1 2 501   0  0.3282760450372589E+02  0.7769187588140317E+01  0.2812008689111753E+03  0.2832171261940788E+03  0.0000000000000000E+00 0. -1
   #pdf1pdf2  0.1051713270128497E-03
</event>
<event>
  5   1  0.2401515482509494E+02  0.9334161785489556E+02  0.7546888109483510E-02  0.1175857044019026E+00
   2 -1 0 0 502   0 -0.1492163339731600E+01  0.6829533038569428E-01  0.1384576071522244E+04  0.1384576071522244E+04  0.1493725438155036E+01 0.  9
  21 -1 0 0 501 502 -0.6826090712758236E+01  0.1768800463517712E+01 -0.3154369417116024E+01  0.3154369417116024E+01  0.7051536676395062E+01 0.  9
 -13 +1 1 2   0   0  0.4438962469275243E+02  0.1264276089552324E+02  0.4821154057855315E+03  0.4843196699280058E+03  0.0000000000000000E+00 0.  1
  13 +1 1 2   0   0 -0.3473475720183866E+02 -0.1942753882578224E+02  0.8380103367237832E+03  0.8389548599767489E+03  0.0000000000000000E+00 0. -1
   2 +1 1 2 501   0 -0.1797312154340361E+02  0.8621873724162407E+01  0.6129595959581366E+02  0.6445591103460552E+02  0.0000000000000000E+00 0. -1
   #pdf1pdf2  0.1653267558359234E-02
</event>
<event>
  5   1  0.2401515482509494E+02  0.9379291637965834E+02  0.7546888109483510E-02  0.1175005355939888E+00
   2 -1 0 0 502   0 -0.6378692769085097E+00  0.5952019060599112E+00  0.1824189351189518E+04  0.1824189351189518E+04  0.8724348247296966E+00 0.  9
  21 -1 0 0 501 502  0.3764606344681067E+01  0.6777024910215237E+01 -0.1890904496523196E+01  0.1890904496523196E+01  0.7752440103869929E+01 0.  9
 -13 +1 1 2   0   0 -0.9364650675115948E+01  0.4954339092692176E+02  0.4252127280004624E+03  0.4281916724089809E+03  0.0000000000000000E+00 0.  1
  13 +1 1 2   0   0  0.1053654811594603E+02 -0.2030790850233160E+02  0.9373202866398774E+03  0.9375994612522986E+03  0.0000000000000000E+00 0. -1
   2 +1 1 2 501   0  0.1954839626942471E+01 -0.2186325560831501E+02  0.4597654320526544E+03  0.4602891220247613E+03  0.0000000000000000E+00 0. -1
   #pdf1pdf2  0.2049524200123553E-02
</event>
<event>
  5  26  0.2401515482509494E+02  0.9335015063593340E+02  0.7546888109483510E-02  0.1175840891013591E+00
   2 -1 0 0 501   0 -0.1670252768468431E+00 -0.3626767996793398E+00  0.9470325652981550E+03  0.9470325652981550E+03  0.3992892487050116E+00 0.  9
  -2 -1 0 0   0 502 -0.2240650924753765E+01  0.6334699340371317E+01 -0.3361156011808300E+01  0.3361156011808300E+01  0.6719295521072183E+01 0.  9
 -13 +1 1 2   0   0 -0.1486068462933653E+02  0.3072284752002113E+02  0.1490759533045819E+03  0.1529325771739329E+03  0.0000000000000000E+00 0.  1
  13 +1 1 2   0   0  0.2395344645706895E+02 -0.4108186075924617E+02  0.5515849842318979E+03  0.5536311784127740E+03  0.0000000000000000E+00 0. -1
  21 +1 1 2 501 502 -0.1150043802933303E+02  0.1633103577991701E+02  0.2430104717498670E+03  0.2438299657232563E+03  0.0000000000000000E+00 0. -1
   #pdf1pdf2  0.6411867407432301E-03
</event>
<event>
  5   2  0.2401515482509494E+02  0.9411317630705909E+02  0.7546888109483510E-02  0.1174404212559099E+00
   1 -1 0 0 502   0 -0.3546448877403052E+01  0.2287323932403845E+00  0.6746544738902738E+03  0.6746544738902738E+03  0.3553817404953558E+01 0.  9
  21 -1 0 0 501 502  0.3693313873385176E+01  0.5693070127873170E+00 -0.5173723146404832E+01  0.5173723146404832E+01  0.3736934283894785E+01 0.  9
 -13 +1 1 2   0   0  0.4630412815731253E+02  0.8767026780401613E+01  0.2658279311058166E+03  0.2699730023520423E+03  0.0000000000000000E+00 0.  1
  13 +1 1 2   0   0 -0.3182552614660449E+02 -0.2631574320488313E+02  0.3309315477771801E+03  0.3334982335322536E+03  0.0000000000000000E+00 0. -1
   1 +1 1 2 501   0 -0.1433173701472592E+02  0.1834675583050922E+02  0.7272127186087232E+02  0.7635696115238275E+02  0.0000000000000000E+00 0. -1
   #pdf1pdf2  0.4005049874107131E-03
</event>
<event>
  5   2  0.2401515482509494E+02  0.1209134738605717E+03  0.7546888109483510E-02  0.1131883694560103E+00
   1 -1 0 0 502   0  0.1983554401792732E+01  0.8164502510463217E+00  0.1295875535252022E+04  0.1295875535252022E+04  0.2145012605395345E+01 0.  9
  21 -1 0 0 501 502  0.5223316643000640E+01 -0.7391574247042386E+01 -0.8380570250768645E+01  0.8380570250768645E+01  0.9050878775157011E+01 0.  9
 -13 +1 1 2   0   0 -0.3055907611631324E+02 -0.9074843694733011E+02  0.5117888344901480E+03  0.5206697101332575E+03  0.0000000000000000E+00 0.  1
  13 +1 1 2   0   0 -0.1129638968856792E+02  0.2174201114975192E+02  0.8920925342254907E+02  0.9251277946878746E+02  0.0000000000000000E+00 0. -1
   1 +1 1 2 501   0  0.4906233684967454E+02  0.6243130180158212E+02  0.6864968770885561E+03  0.6910736159007456E+03  0.0000000000000000E+00 0. -1
   #pdf1pdf2  0.1173923478131610E-03
</event>
<event>
  5  27  0.2401515482509494E+02  0.9226271170611740E+02  0.7546888109483510E-02  0.1177915188166485E+00
   1 -1 0 0 501   0  0.1160934113384073E+01  0.7988218949500796E+00  0.7140879412062742E+03  0.7140879412062742E+03  0.1409214119809512E+01 0.  9
  -1 -1 0 0   0 502 -0.6453427729948359E+01  0.2478153251329362E+02 -0.7205606140091308E+01  0.7205606140091308E+01  0.2560802770955029E+02 0.  9
 -13 +1 1 2   0   0 -0.5426241670897219E+02  0.4614727491831665E+01  0.2084557605983442E+03  0.2154518732885751E+03  0.0000000000000000E+00 0.  1
  13 +1 1 2   0   0  0.3651016150927343E+02  0.2743667732709339E+02  0.1425280217751266E+03  0.1496662959631034E+03  0.0000000000000000E+00 0. -1
  21 +1 1 2 501 502  0.1245976158313447E+02 -0.6471050410681357E+01  0.3558985526927121E+03  0.3561753780946871E+03  0.0000000000000000E+00 0. -1
   #pdf1pdf2  0.3448979416627813E-05
</event>
<event>
  5  23  0.2401515482509494E+02  0.9258395908957317E+02  0.7546888109483510E-02  0.1177299088748093E+00
  -3 -1 0 0   0 502 -0.2181075392515435E+01 -0.3716879027186902E+01  0.7392213520566326E+03  0.7392213520566326E+03  0.4309556771940499E+01 0.  9
   3 -1 0 0 501   0 -0.5800690052439918E+01  0.6143288648536888E+00 -0.3836430598953160E+01  0.3836430598953160E+01  0.5833129952149860E+01 0.  9
 -13 +1 1 2   0   0 -0.2916890454660028E+02 -0.2647794819889665E+02  0.4324380895924425E+03  0.4342287508487128E+03  0.0000000000000000E+00 0.  1
  13 +1 1 2   0   0  0.3719763860001326E+02  0.2296849845127642E+02  0.2085065803254669E+03  0.2130403958819638E+03  0.0000000000000000E+00 0. -1
  21 +1 1 2 501 502 -0.1601049949836833E+02  0.4068995852870150E+00  0.9444025153976997E+02  0.9578863592490909E+02  0.0000000000000000E+00 0. -1
   #pdf1pdf2  0.9355852928525863E-06
</event>
<event>
  5   1  0.2401515482509494E+02  0.9368426023382959E+02  0.7546888109483510E-02  0.1175209919941101E+00
   2 -1 0 0 502   0  0.1468094731832681E+01 -0.8201537505080662E+00  0.6016595830610804E+03  0.6016595830610804E+03  0.1681652257783195E+01 0.  9
  21 -1 0 0 501 502  0.4385662439180351E+02 -0.1621554160045985E+02 -0.5814350337229094E+01  0.5814350337229094E+01  0.4675839274868179E+02 0.  9
 -13 +1 1 2   0   0  0.9252083729238183E+01  0.3578774237232777E+02  0.3801379684986921E+03  0.3819309344001263E+03  0.0000000000000000E+00 0. -1
  13 +1 1 2   0   0  0.1889243586466558E+02 -0.3992795244981765E+02  0.1361244304552118E+03  0.1431119355137481E+03  0.0000000000000000E+00 0.  1
   2 +1 1 2 501   0  0.1718019952973243E+02 -0.1289548527347803E+02  0.7958283376994734E+02  0.8243106348443516E+02  0.0000000000000000E+00 0. -1
   #pdf1pdf2  0.4590987109205085E-04
</event>
<event>
  5   1  0.2401515482509494E+02  0.9839677382559758E+02  0.7546888109483510E-02  0.1166612970057740E+00
   2 -1 0 0 502   0  0.6719385299402612E-01 -0.3411469882373839E+00  0.8420870774765518E+03  0.8420870774765518E+03  0.3477014257428642E+00 0.  9
  21 -1 0 0 501 502  0.1465032846470282E+01  0.9555516109820259E+01 -0.6899014518424837E+01  0.6899014518424837E+01  0.9667171735635574E+01 0.  9
 -13 +1 1 2   0   0  0.3487041001584755E+02 -0.2920392936787435E+02  0.2949934812786975E+03  0.2984794280718896E+03  0.0000000000000000E+00 0.  1
  13 +1 1 2   0   0 -0.1582225090633997E+00  0.5471944816886712E+02  0.1728021783572053E+03  0.1812590298088984E+03  0.0000000000000000E+00 0. -1
   2 +1 1 2 501   0 -0.3317996080731984E+02 -0.1630114967940989E+02  0.3673924033222243E+03  0.3692476341141886E+03  0.0000000000000000E+00 0. -1
   #pdf1pdf2  0.4454673483142052E-02
</event>
<event>
  5  26  0.2401515482509494E+02  0.9273005343802822E+02  0.7546888109483510E-02  0.1177019828911491E+00
   2 -1 0 0 501   0  0.1670784918327239E+02 -0.1081231532439488E+02  0.1465215835700094E+04  0.1465215835700094E+04  0.1990121571676264E+02 0.  9
  -2 -1 0 0   0 502  0.1176803104450223E+01 -0.2421417074572627E+01 -0.1869481964069096E+01  0.1869481964069096E+01  0.2692234424353782E+01 0.  9
 -13 +1 1 2   0   0 -0.4193636695038783E+01  0.3568860529662921E+02  0.3903557535155669E+03  0.3920062211744280E+03  0.0000000000000000E+00 0.  1
  13 +1 1 2   0   0  0.5255064217931785E+01 -0.4817795883265537E+02  0.8887994230784557E+03  0.8901197368229800E+03  0.0000000000000000E+00 0. -1
  21 +1 1 2 501 502  0.1682322476482961E+02 -0.7443788629413461E+00  0.1841911771420021E+03  0.1849593596667548E+03  0.0000000000000000E+00 0. -1
   #pdf1pdf2  0.1252792597766816E-06
</event>
<event>
  5  26  0.2401515482509494E+02  0.9228446330223237E+02  0.7546888109483510E-02  0.1177873383618438E+00
   2 -1 0 0 501   0 -0.3774786042926702E+00 -0.9185240855958358E+00  0.2151682105165602E+04  0.2151682105165602E+04  0.9930642439028849E+00 0.  9
  -2 -1 0 0   0 502  0.2856625459559369E+01 -0.9236462075686259E+00 -0.1306415444805862E+01  0.1306415444805862E+01  0.3002237720927289E+01 0.  9
 -13 +1 1 2   0   0  0.3530719279519768E+02  0.2651835504997126E+02  0.1041120562837408E+04  0.1042056547112735E+04  0.0000000000000000E+00 0. -1
  13 +1 1 2   0   0 -0.4288494414621034E+02 -0.1836086803852729E+02  0.8124448882963429E+03  0.8137831015869087E+03  0.0000000000000000E+00 0.  1
  21 +1 1 2 501 502  0.1005689820627936E+02 -0.9999657304608425E+01  0.2968102385870457E+03  0.2971488719107647E+03  0.0000000000000000E+00 0.  1
   #pdf1pdf2  0.2059638999772264E-03
</event>
<event>
  5  26  0.2401515482509494E+02  0.9553410061912049E+02  0.7546888109483510E-02  0.1171769036805431E+00
   2 -1 0 0 501   0  0.6161331792410845E+00 -0.7370461753945415E+00  0.4043725679766560E+03  0.4043725679766560E+03  0.9606545472881746E+00 0.  9
  -2 -1 0 0   0 502 -0.1157862547671556E+02 -0.3769121236394756E+00 -0.9516477758604720E+01  0.9516477758604720E+01  0.1158475855074214E+02 0.  9
 -13 +1 1 2   0   0  0.3103497300568865E+02 -0.4957714823105874E+02  0.1924193815996474E+03  0.2011126092301995E+03  0.0000000000000000E+00 0.  1
  13 +1 1 2   0   0 -0.2476181214684129E+02  0.2578260744084485E+02  0.1330795757943993E+03  0.1377971831383408E+03  0.0000000000000000E+00 0. -1
  21 +1 1 2 501 502 -0.1723565315632184E+02  0.2268058249117987E+02  0.6935713282400451E+02  0.7497925336672036E+02  0.0000000000000000E+00 0. -1
   #pdf1pdf2  0.7351239812314058E-04
</event>
<event>
  5  26  0.2401515482509494E+02  0.9176553927998827E+02  0.7546888109483510E-02  0.1178874239054575E+00
   2 -1 0 0 501   0 -0.2064583218565986E+01 -0.1187541965008337E+01  0.4777821400401810E+03  0.4777821400401810E+03  0.2381755609847524E+01 0.  9
  -2 -1 0 0   0 502 -0.1553046917557763E+02 -0.4210340782722876E+01 -0.5740326944610556E+01  0.5740326944610556E+01  0.1609106715914847E+02 0.  9
 -13 +1 1 2   0   0  0.8918455381499481E+01 -0.4416811589827903E+02  0.1939359629572149E+03  0.1991017805961007E+03  0.0000000000000000E+00 0.  1
  13 +1 1 2   0   0 -0.1700138547272097E+02  0.4266200773309036E+02  0.2554137764444104E+03  0.2595097131311380E+03  0.0000000000000000E+00 0. -1
  21 +1 1 2 501 502 -0.9512122302922130E+01 -0.3891774582542551E+01  0.2269207369394527E+02  0.2491097325755290E+02  0.0000000000000000E+00 0.  1
   #pdf1pdf2  0.1207884988801660E-04
</event>
<event>
  5   1  0.2401515482509494E+02  0.9539967038008190E+02  0.7546888109483510E-02  0.1172016138356255E+00
   2 -1 0 0 502   0  0.2224861050850356E+00 -0.5053186372067908E+01  0.1001518227649898E+04  0.1001518227649898E+04  0.5058081906988927E+01 0.  9
  21 -1 0 0 501 502 -0.1528590279234422E+02 -0.4481987179681156E+01 -0.2580593113817526E+01  0.2580593113817526E+01  0.1592943920092051E+02 0.  9
 -13 +1 1 2   0   0 -0.4407813693019848E+02 -0.4431051235472381E+01  0.5534188153732376E+03  0.5551890683176375E+03  0.0000000000000000E+00 0. -1
  13 +1 1 2   0   0  0.9432052996472294E+01 -0.2516224867200662E+02  0.2355925725894717E+03  0.2371201438960547E+03  0.0000000000000000E+00 0.  1
   2 +1 1 2 501   0  0.1958266724646700E+02  0.2005812635572993E+02  0.2099262465733715E+03  0.2117896085500236E+03  0.0000000000000000E+00 0. -1
   #pdf1pdf2  0.4684478413347634E-04
</event>
<event>
  5  26  0.2401515482509494E+02  0.9969818478429806E+02  0.7546888109483510E-02  0.1164334042727136E+00
   2 -1 0 0 501   0 -0.4080827715966588E+00 -0.2965563690563191E+00  0.1076474262834442E+04  0.1076474262834442E+04  0.5044573604397884E+00 0.  9
  -2 -1 0 0   0 502 -0.1348080245241842E+02  0.3934688019270988E+02 -0.6165055199509769E+01  0.6165055199509769E+01  0.4159217493303993E+02 0.  9
 -13 +1 1 2   0   0 -0.2154494811715910E+02  0.2131480006010513E+02  0.4336787916610095E+03  0.4347364717015662E+03  0.0000000000000000E+00 0. -1
  13 +1 1 2   0   0  0.4480372867823262E+02  0.3337173675657848E+02  0.5442919154301945E+03  0.5471514745664980E+03  0.0000000000000000E+00 0.  1
  21 +1 1 2 501 502 -0.3714766578508860E+02 -0.1563621299303005E+02  0.9233850054372783E+02  0.1007513717658875E+03  0.0000000000000000E+00 0. -1
   #pdf1pdf2  0.5008077398587254E-05
</event>
<event>
  5  27  0.2401515482509494E+02  0.9243703340740441E+02  0.7546888109483510E-02  0.1177580520114290E+00
   1 -1 0 0 501   0  0.6566324652896887E+01  0.1436950049958591E+01  0.4602290491106041E+03  0.4602290491106041E+03  0.6721714431104421E+01 0.  9
  -1 -1 0 0   0 502 -0.2694691772678665E+01 -0.1027988056445456E+01 -0.7080828925621104E+01  0.7080828925621104E+01  0.2884115669306033E+01 0.  9
 -13 +1 1 2   0   0 -0.2231508136157154E+02 -0.3268677277374433E+02  0.2090421466802273E+03  0.2127557450674684E+03  0.0000000000000000E+00 0.  1
  13 +1 1 2   0   0  0.4108130349920653E+02  0.3582859714477438E+02  0.1583082491052220E+03  0.1674301753129270E+03  0.0000000000000000E+00 0. -1
  21 +1 1 2 501 502 -0.1489458925741676E+02 -0.2732862377516921E+01  0.8579782439953374E+02  0.8712395765582983E+02  0.0000000000000000E+00 0. -1
   #pdf1pdf2  0.1411611632000241E-04
</event>
<event>
  5  27  0.2401515482509494E+02  0.9235349946557901E+02  0.7546888109483510E-02  0.1177740787906219E+00
   1 -1 0 0 501   0  0.2053415555191977E+01  0.1618869502604852E+02  0.6362473767022811E+03  0.6362473767022811E+03  0.1631840562336629E+02 0.  9
  -1 -1 0 0   0 502  0.2469050037513024E+01 -0.3943109518914541E+01 -0.4660753942426936E+01  0.4660753942426936E+01  0.4652345727253890E+01 0.  9
 -13 +1 1 2   0   0  0.4460243689215254E+02 -0.1990264625161863E+01  0.1946181928356856E+03  0.1996736825739054E+03  0.0000000000000000E+00 0.  1
  13 +1 1 2   0   0 -0.4346342547522545E+02  0.7945081336496962E-02  0.3775133968322291E+03  0.3800071502024309E+03  0.0000000000000000E+00 0. -1
  21 +1 1 2 501 502  0.3383454175777910E+01  0.1422790505095935E+02  0.5945503309193953E+02  0.6122729786837181E+02  0.0000000000000000E+00 0. -1
   #pdf1pdf2  0.3942808018741062E-06
</event>
<event>
  5  21  0.2401515482509494E+02  0.9600256461780117E+02  0.7546888109483510E-02  0.1170911483609377E+00
  -2 -1 0 0   0 502  0.4920053904367003E+00  0.5545648628155924E+00  0.6023576458789627E+03  0.6023576458789627E+03  0.7413578699173879E+00 0.  9
   2 -1 0 0 501   0  0.5056936575728106E+02  0.1681112248727735E+02 -0.8704711067180899E+01  0.8704711067180899E+01  0.5329047374884100E+02 0.  9
 -13 +1 1 2   0   0  0.2169689244631141E+02 -0.3657048910771409E+02  0.3048497070728389E+03  0.3078010716644761E+03  0.0000000000000000E+00 0.  1
  13 +1 1 2   0   0  0.4629031907336376E+02  0.2914261839007286E+02  0.1209416013841465E+03  0.1327364184837945E+03  0.0000000000000000E+00 0. -1
  21 +1 1 2 501 502 -0.1692584037195741E+02  0.2479355806773417E+02  0.1678616263547963E+03  0.1705248667978730E+03  0.0000000000000000E+00 0.  1
   #pdf1pdf2  0.1545977443133713E-06
</event>
<event>
  5  26  0.2401515482509494E+02  0.9184571992524779E+02  0.7546888109483510E-02  0.1178719110404794E+00
   2 -1 0 0 501   0  0.2345677384894553E+00  0.2220095297880679E+00  0.1479469269305079E+04  0.1479469269305079E+04  0.3229709820661548E+00 0.  9
  -2 -1 0 0   0 502 -0.4624284636061779E+02  0.3825220784758375E+02 -0.2325138344326017E+01  0.2325138344326017E+01  0.6001360049810751E+02 0.  9
 -13 +1 1 2   0   0  0.6000298529848816E+01  0.2332449614120039E+02  0.9189460350363905E+02  0.9499817817084286E+02  0.0000000000000000E+00 0.  1
  13 +1 1 2   0   0 -0.4150574091861895E+02  0.1198130200849354E+02  0.1313740918782463E+04  0.1314451018414308E+04  0.0000000000000000E+00 0. -1
  21 +1 1 2 501 502 -0.1050283623335820E+02  0.3168419227677887E+01  0.7150860867465076E+02  0.7234521106425358E+02  0.0000000000000000E+00 0.  1
   #pdf1pdf2  0.2182057441643051E-05
</event>
<event>
  5  26  0.2401515482509494E+02  0.9235636958554288E+02  0.7546888109483510E-02  0.1177735278161234E+00
   2 -1 0 0 501   0 -0.6698280027570998E-02  0.4534883191985328E+01  0.6727590141747407E+03  0.6727590141747407E+03  0.4534888138852641E+01 0.  9
  -2 -1 0 0   0 502  0.1251824228047217E+01  0.5003079062332778E+01 -0.5142282340923004E+01  0.5142282340923004E+01  0.5157311702997855E+01 0.  9
 -13 +1 1 2   0   0 -0.3445766253265710E+02 -0.3656685356461420E+01  0.2868124473225544E+03  0.2888980474045536E+03  0.0000000000000000E+00 0.  1
  13 +1 1 2   0   0  0.4863162614375260E+02  0.2006897233857820E+02  0.1764760023260891E+03  0.1841509655394458E+03  0.0000000000000000E+00 0. -1
  21 +1 1 2 501 502 -0.1292883766307586E+02 -0.6874324727798673E+01  0.2043282821851743E+03  0.2048522835716644E+03  0.0000000000000000E+00 0. -1
   #pdf1pdf2  0.2831529086490190E-04
</event>
<event>
  5   1  0.2401515482509494E+02  0.9749460927238727E+02  0.7546888109483510E-02  0.1168216358602874E+00
   2 -1 0 0 502   0 -0.7015843056216887E+00  0.8711041699231938E+00  0.1329495131598559E+04  0.1329495131598559E+04  0.1118500340971000E+01 0.  9
  21 -1 0 0 501 502 -0.1172711898015975E+01 -0.1756058171162282E+01 -0.3990042054173494E+01  0.3990042054173494E+01  0.2111632898080074E+01 0.  9
 -13 +1 1 2   0   0 -0.1184335949041398E+02 -0.2405156122782508E+02  0.1031866007475648E+04  0.1032214222022371E+04  0.0000000000000000E+00 0. -1
  13 +1 1 2   0   0  0.3271426142558370E+02 -0.2767289117038413E+01  0.1493013464218147E+03  0.1528684821441145E+03  0.0000000000000000E+00 0.  1
   2 +1 1 2 501   0 -0.2274519813880738E+02  0.2593389634362441E+02  0.1443377356469230E+03  0.1484024694862470E+03  0.0000000000000000E+00 0. -1
   #pdf1pdf2  0.6876800178601254E-02
</event>
<event>
  5  26  0.2401515482509494E+02  0.9221412108569194E+02  0.7546888109483510E-02  0.1178008621443161E+00
   2 -1 0 0 501   0 -0.1425870436235670E+01  0.2420649771617311E+01  0.6112952560418649E+03  0.6112952560418649E+03  0.2809386377442918E+01 0.  9
  -2 -1 0 0   0 502  0.8727301967257754E+01  0.6128385589019437E+01 -0.6047847481800139E+01  0.6047847481800139E+01  0.1066409440859383E+02 0.  9
 -13 +1 1 2   0   0  0.1978365292282412E+01 -0.3437858316861288E+02  0.2118554161134206E+03  0.2146357804432932E+03  0.0000000000000000E+00 0.  1
  13 +1 1 2   0   0  0.1836093324264693E+02  0.4719028581102096E+02  0.1388334853987832E+03  0.1477795101238360E+03  0.0000000000000000E+00 0. -1
  21 +1 1 2 501 502 -0.1303786700390726E+02 -0.4262667281771336E+01  0.2545585070478610E+03  0.2549278129565359E+03  0.0000000000000000E+00 0. -1
   #pdf1pdf2  0.1992174921768569E-04
</event>
<event>
  5   1  0.2401515482509494E+02  0.1031818579799786E+03  0.7546888109483510E-02  0.1158421044094223E+00
   2 -1 0 0 502   0  0.4651064768021789E+00 -0.1589817472608422E+01  0.1663565739140824E+04  0.1663565739140824E+04  0.1656455140042846E+01 0.  9
  21 -1 0 0 501 502  0.3766209895019632E+02  0.7117654760208003E+01 -0.7354887741015619E+01  0.7354887741015619E+01  0.3832877126415470E+02 0.  9
 -13 +1 1 2   0   0 -0.1497313474340582E+02  0.8967003762825080E+01  0.4337514356374413E+03  0.4341024186042599E+03  0.0000000000000000E+00 0.  1
  13 +1 1 2   0   0  0.9761287979505683E+02 -0.2214322520920665E+02  0.1109064820644499E+04  0.1113572347499597E+04  0.0000000000000000E+00 0. -1
   2 +1 1 2 501   0 -0.4451253962465250E+02  0.1870405873398116E+02  0.1133945951178680E+03  0.1232458607779819E+03  0.0000000000000000E+00 0. -1
   #pdf1pdf2  0.1903002900314209E-04
</event>
