<LesHouchesEvents version="3.0">
  <header>
  <MG5ProcCard>
#************************************************************                                                                                         
#*                     MadGraph5_aMC@NLO                    *                                                                                         
#*                                                          *                                                                                         
#*                *                       *                 *                                                                                         
#*                  *        * *        *                   *                                                                                         
#*                    * * * * 5 * * * *                     *                                                                                         
#*                  *        * *        *                   *                                                                                         
#*                *                       *                 *                                                                                         
#*                                                          *                                                                                         
#*                                                          *                                                                                         
#*         VERSION 2.6.3.2               2018-06-22         *                                                                                         
#*                                                          *                                                                                         
#*    The MadGraph5_aMC@NLO Development Team - Find us at   *                                                                                         
#*    https://server06.fynu.ucl.ac.be/projects/madgraph     *                                                                                         
#*                                                          *                                                                                         
#************************************************************                                                                                         
#*                                                          *                                                                                         
#*               Command File for MadGraph5_aMC@NLO         *                                                                                         
#*                                                          *                                                                                         
#*     run as ./bin/mg5_aMC  filename                       *                                                                                         
#*                                                          *                                                                                         
#************************************************************                                                                                         
set default_unset_couplings 99                                                                                                                        
set group_subprocesses Auto                                                                                                                           
set ignore_six_quark_processes False                                                                                                                  
set loop_optimized_output True                                                                                                                        
set low_mem_multicore_nlo_generation False                                                                                                            
set loop_color_flows False                                                                                                                            
set gauge unitary                                                                                                                                     
set complex_mass_scheme False                                                                                                                         
set max_npoint_for_channel 0                                                                                                                          
import model sm                                                                                                                                       
define p = g u c d s u~ c~ d~ s~                                                                                                                      
define j = g u c d s u~ c~ d~ s~                                                                                                                      
define l+ = e+ mu+                                                                                                                                    
define l- = e- mu-                                                                                                                                    
define vl = ve vm vt                                                                                                                                  
define vl~ = ve~ vm~ vt~                                                                                                                              
import model loop_sm                                                                                                                                  
generate p p > e+ e- [QCD]                                                                                                                            
output ppDY_AMCATNLO_RUN-HERAPDF2.0                                                                                                                   
  </MG5ProcCard>
  <slha>
######################################################################                                                                                
## PARAM_CARD AUTOMATICALY GENERATED BY MG5 FOLLOWING UFO MODEL   ####                                                                                
######################################################################                                                                                
##                                                                  ##                                                                                
##  Width set on Auto will be computed following the information    ##                                                                                
##        present in the decay.py files of the model.               ##                                                                                
##        See  arXiv:1402.1178 for more details.                    ##                                                                                
##                                                                  ##                                                                                
######################################################################                                                                                
                                                                                                                                                      
###################################                                                                                                                   
## INFORMATION FOR LOOP                                                                                                                               
###################################                                                                                                                   
Block loop                                                                                                                                            
    1 9.118800e+01 # MU_R                                                                                                                             
                                                                                                                                                      
###################################                                                                                                                   
## INFORMATION FOR MASS                                                                                                                               
###################################                                                                                                                   
Block mass                                                                                                                                            
    5 4.700000e+00 # MB                                                                                                                               
    6 1.730000e+02 # MT                                                                                                                               
   15 1.777000e+00 # MTA                                                                                                                              
   23 9.118800e+01 # MZ                                                                                                                               
   25 1.250000e+02 # MH                                                                                                                               
## Dependent parameters, given by model restrictions.                                                                                                 
## Those values should be edited following the                                                                                                        
## analytical expression. MG5 ignores those values                                                                                                    
## but they are important for interfacing the output of MG5                                                                                           
## to external program such as Pythia.                                                                                                                
  1 0.000000 # d : 0.0                                                                                                                                
  2 0.000000 # u : 0.0                                                                                                                                
  3 0.000000 # s : 0.0                                                                                                                                
  4 0.000000 # c : 0.0                                                                                                                                
  11 0.000000 # e- : 0.0                                                                                                                              
  12 0.000000 # ve : 0.0                                                                                                                              
  13 0.000000 # mu- : 0.0                                                                                                                             
  14 0.000000 # vm : 0.0                                                                                                                              
  16 0.000000 # vt : 0.0                                                                                                                              
  21 0.000000 # g : 0.0                                                                                                                               
  22 0.000000 # a : 0.0                                                                                                                               
  24 80.419002 # w+ : cmath.sqrt(MZ__exp__2/2. + cmath.sqrt(MZ__exp__4/4. - (aEW*cmath.pi*MZ__exp__2)/(Gf*sqrt__2)))                                  
                                                                                                                                                      
###################################                                                                                                                   
## INFORMATION FOR SMINPUTS                                                                                                                           
###################################                                                                                                                   
Block sminputs                                                                                                                                        
    1 1.325070e+02 # aEWM1                                                                                                                            
    2 1.166390e-05 # Gf                                                                                                                               
    3 1.180000e-01 # aS                                                                                                                               
                                                                                                                                                      
###################################                                                                                                                   
## INFORMATION FOR YUKAWA                                                                                                                             
###################################                                                                                                                   
Block yukawa                                                                                                                                          
    5 4.700000e+00 # ymb                                                                                                                              
    6 1.730000e+02 # ymt                                                                                                                              
   15 1.777000e+00 # ymtau                                                                                                                            
                                                                                                                                                      
###################################                                                                                                                   
## INFORMATION FOR DECAY                                                                                                                              
###################################                                                                                                                   
DECAY   6 1.491500e+00 # WT                                                                                                                           
DECAY  23 2.441404e+00 # WZ                                                                                                                           
DECAY  24 2.047600e+00 # WW                                                                                                                           
DECAY  25 6.382339e-03 # WH                                                                                                                           
## Dependent parameters, given by model restrictions.                                                                                                 
## Those values should be edited following the                                                                                                        
## analytical expression. MG5 ignores those values                                                                                                    
## but they are important for interfacing the output of MG5                                                                                           
## to external program such as Pythia.                                                                                                                
DECAY  1 0.000000 # d : 0.0                                                                                                                           
DECAY  2 0.000000 # u : 0.0                                                                                                                           
DECAY  3 0.000000 # s : 0.0                                                                                                                           
DECAY  4 0.000000 # c : 0.0                                                                                                                           
DECAY  5 0.000000 # b : 0.0                                                                                                                           
DECAY  11 0.000000 # e- : 0.0                                                                                                                         
DECAY  12 0.000000 # ve : 0.0                                                                                                                         
DECAY  13 0.000000 # mu- : 0.0                                                                                                                        
DECAY  14 0.000000 # vm : 0.0                                                                                                                         
DECAY  15 0.000000 # ta- : 0.0                                                                                                                        
DECAY  16 0.000000 # vt : 0.0                                                                                                                         
DECAY  21 0.000000 # g : 0.0                                                                                                                          
DECAY  22 0.000000 # a : 0.0                                                                                                                          
#===========================================================                                                                                          
# QUANTUM NUMBERS OF NEW STATE(S) (NON SM PDG CODE)                                                                                                   
#===========================================================                                                                                          
                                                                                                                                                      
Block QNUMBERS 82  # gh                                                                                                                               
        1 0  # 3 times electric charge                                                                                                                
        2 1  # number of spin states (2S+1)                                                                                                           
        3 8  # colour rep (1: singlet, 3: triplet, 8: octet)                                                                                          
        4 1  # Particle/Antiparticle distinction (0=own anti)                                                                                         
  </slha>
  <MGRunCard>
#***********************************************************************                                                                              
#                        MadGraph5_aMC@NLO                             *                                                                              
#                                                                      *                                                                              
#                      run_card.dat aMC@NLO                            *                                                                              
#                                                                      *                                                                              
#  This file is used to set the parameters of the run.                 *                                                                              
#                                                                      *                                                                              
#  Some notation/conventions:                                          *                                                                              
#                                                                      *                                                                              
#   Lines starting with a hash (#) are info or comments                *                                                                              
#                                                                      *                                                                              
#   mind the format:   value    = variable     ! comment               *                                                                              
#                                                                      *                                                                              
#   Some of the values of variables can be list. These can either be   *                                                                              
#   comma or space separated.                                          *                                                                              
#                                                                      *                                                                              
#   To display additional parameter, you can use the command:          *                                                                              
#      update to_full                                                  *                                                                              
#***********************************************************************                                                                              
#                                                                                                                                                     
#*******************                                                                                                                                  
# Running parameters                                                                                                                                  
#*******************                                                                                                                                  
#                                                                                                                                                     
#***********************************************************************                                                                              
# Tag name for the run (one word)                                      *                                                                              
#***********************************************************************                                                                              
  tag_1     = run_tag ! name of the run                                                                                                               
#***********************************************************************                                                                              
# Number of LHE events (and their normalization) and the required      *                                                                              
# (relative) accuracy on the Xsec.                                     *                                                                              
# These values are ignored for fixed order runs                        *                                                                              
#***********************************************************************                                                                              
    1000000 = nevents                                                                                                                                 
 -1.0 = req_acc ! Required accuracy (-1=auto determined from nevents)                                                                                 
 -1 = nevt_job! Max number of events per job in event generation.                                                                                     
                 !  (-1= no split).                                                                                                                   
#***********************************************************************                                                                              
# Normalize the weights of LHE events such that they sum or average to *                                                                              
# the total cross section                                              *                                                                              
#***********************************************************************                                                                              
 average = event_norm    ! valid settings: average, sum, bias                                                                                         
#***********************************************************************                                                                              
# Number of points per itegration channel (ignored for aMC@NLO runs)   *                                                                              
#***********************************************************************                                                                              
 0.01   = req_acc_FO       ! Required accuracy (-1=ignored, and use the                                                                               
 	                   ! number of points and iter. below)                                                                                              
# These numbers are ignored except if req_acc_FO is equal to -1                                                                                       
 5000   = npoints_FO_grid  ! number of points to setup grids                                                                                          
 4      = niters_FO_grid   ! number of iter. to setup grids                                                                                           
 10000  = npoints_FO       ! number of points to compute Xsec                                                                                         
 6      = niters_FO        ! number of iter. to compute Xsec                                                                                          
#***********************************************************************                                                                              
# Random number seed                                                   *                                                                              
#***********************************************************************                                                                              
         33 =  iseed                                                                                                                                  
#***********************************************************************                                                                              
# Collider type and energy                                             *                                                                              
#***********************************************************************                                                                              
 1   = lpp1    ! beam 1 type (0 = no PDF)                                                                                                             
 1   = lpp2    ! beam 2 type (0 = no PDF)                                                                                                             
 4000.0   = ebeam1  ! beam 1 energy in GeV                                                                                                            
 4000.0   = ebeam2  ! beam 2 energy in GeV                                                                                                            
#***********************************************************************                                                                              
# PDF choice: this automatically fixes also alpha_s(MZ) and its evol.  *                                                                              
#***********************************************************************                                                                              
 lhapdf = pdlabel ! PDF set                                                                                                                           
 61100  = lhaid   ! If pdlabel=lhapdf, this is the lhapdf number. Only                                                                                
              ! numbers for central PDF sets are allowed. Can be a list;                                                                              
              ! PDF sets beyond the first are included via reweighting.                                                                               
#***********************************************************************                                                                              
# Include the NLO Monte Carlo subtr. terms for the following parton    *                                                                              
# shower (HERWIG6 | HERWIGPP | PYTHIA6Q | PYTHIA6PT | PYTHIA8)         *                                                                              
# WARNING: PYTHIA6PT works only for processes without FSR!!!!          *                                                                              
#***********************************************************************                                                                              
  HERWIG6   = parton_shower                                                                                                                           
  1.0 = shower_scale_factor ! multiply default shower starting                                                                                        
                                  ! scale by this factor                                                                                              
#***********************************************************************                                                                              
# Renormalization and factorization scales                             *                                                                              
# (Default functional form for the non-fixed scales is the sum of      *                                                                              
# the transverse masses divided by two of all final state particles    *                                                                              
# and partons. This can be changed in SubProcesses/set_scales.f or via *                                                                              
# dynamical_scale_choice option)                                       *                                                                              
#***********************************************************************                                                                              
 False    = fixed_ren_scale  ! if .true. use fixed ren scale                                                                                          
 False    = fixed_fac_scale  ! if .true. use fixed fac scale                                                                                          
 91.118   = muR_ref_fixed    ! fixed ren reference scale                                                                                              
 91.118   = muF_ref_fixed    ! fixed fact reference scale                                                                                             
 -1 = dynamical_scale_choice ! Choose one (or more) of the predefined                                                                                 
           ! dynamical choices. Can be a list; scale choices beyond the                                                                               
           ! first are included via reweighting                                                                                                       
 1.0  = muR_over_ref  ! ratio of current muR over reference muR                                                                                       
 1.0  = muF_over_ref  ! ratio of current muF over reference muF                                                                                       
#***********************************************************************                                                                              
# Reweight variables for scale dependence and PDF uncertainty          *                                                                              
#***********************************************************************                                                                              
 1.0, 2.0, 0.5 = rw_rscale ! muR factors to be included by reweighting                                                                                
 1.0, 2.0, 0.5 = rw_fscale ! muF factors to be included by reweighting                                                                                
 True = reweight_scale ! Reweight to get scale variation using the                                                                                    
            ! rw_rscale and rw_fscale factors. Should be a list of                                                                                    
            ! booleans of equal length to dynamical_scale_choice to                                                                                   
            ! specify for which choice to include scale dependence.                                                                                   
 False = reweight_PDF  ! Reweight to get PDF uncertainty. Should be a                                                                                 
            ! list booleans of equal length to lhaid to specify for                                                                                   
            !  which PDF set to include the uncertainties.                                                                                            
#***********************************************************************                                                                              
# Store reweight information in the LHE file for off-line model-       *                                                                              
# parameter reweighting at NLO+PS accuracy                             *                                                                              
#***********************************************************************                                                                              
 False = store_rwgt_info ! Store info for reweighting in LHE file                                                                                     
#***********************************************************************                                                                              
# ickkw parameter:                                                     *                                                                              
#   0: No merging                                                      *                                                                              
#   3: FxFx Merging - WARNING! Applies merging only at the hard-event  *                                                                              
#      level. After showering an MLM-type merging should be applied as *                                                                              
#      well. See http://amcatnlo.cern.ch/FxFx_merging.htm for details. *                                                                              
#   4: UNLOPS merging (with pythia8 only). No interface from within    *                                                                              
#      MG5_aMC available, but available in Pythia8.                    *                                                                              
#  -1: NNLL+NLO jet-veto computation. See arxiv:1412.8408 [hep-ph].    *                                                                              
#***********************************************************************                                                                              
 0        = ickkw                                                                                                                                     
#***********************************************************************                                                                              
#                                                                                                                                                     
#***********************************************************************                                                                              
# BW cutoff (M+/-bwcutoff*Gamma). Determines which resonances are      *                                                                              
# written in the LHE event file                                        *                                                                              
#***********************************************************************                                                                              
 15.0  = bwcutoff                                                                                                                                     
#***********************************************************************                                                                              
# Cuts on the jets. Jet clustering is performed by FastJet.            *                                                                              
#  - When matching to a parton shower, these generation cuts should be *                                                                              
#    considerably softer than the analysis cuts.                       *                                                                              
#  - More specific cuts can be specified in SubProcesses/cuts.f        *                                                                              
#***********************************************************************                                                                              
  1.0  = jetalgo   ! FastJet jet algorithm (1=kT, 0=C/A, -1=anti-kT)                                                                                  
  0.7  = jetradius ! The radius parameter for the jet algorithm                                                                                       
 10.0  = ptj       ! Min jet transverse momentum                                                                                                      
 -1.0  = etaj      ! Max jet abs(pseudo-rap) (a value .lt.0 means no cut)                                                                             
#***********************************************************************                                                                              
# Cuts on the charged leptons (e+, e-, mu+, mu-, tau+ and tau-)        *                                                                              
# More specific cuts can be specified in SubProcesses/cuts.f           *                                                                              
#***********************************************************************                                                                              
  0.0  = ptl     ! Min lepton transverse momentum                                                                                                     
 -1.0  = etal    ! Max lepton abs(pseudo-rap) (a value .lt.0 means no cut)                                                                            
  0.0  = drll    ! Min distance between opposite sign lepton pairs                                                                                    
  0.0  = drll_sf ! Min distance between opp. sign same-flavor lepton pairs                                                                            
  30.0  = mll     ! Min inv. mass of all opposite sign lepton pairs                                                                                   
 30.0  = mll_sf  ! Min inv. mass of all opp. sign same-flavor lepton pairs                                                                            
#***********************************************************************                                                                              
# Photon-isolation cuts, according to hep-ph/9801442. When ptgmin=0,   *                                                                              
# all the other parameters are ignored.                                *                                                                              
# More specific cuts can be specified in SubProcesses/cuts.f           *                                                                              
#***********************************************************************                                                                              
 20.0  = ptgmin    ! Min photon transverse momentum                                                                                                   
 -1.0  = etagamma  ! Max photon abs(pseudo-rap)                                                                                                       
  0.4  = R0gamma   ! Radius of isolation code                                                                                                         
  1.0  = xn        ! n parameter of eq.(3.4) in hep-ph/9801442                                                                                        
  1.0  = epsgamma  ! epsilon_gamma parameter of eq.(3.4) in hep-ph/9801442                                                                            
 True  = isoEM  ! isolate photons from EM energy (photons and leptons)                                                                                
#***********************************************************************                                                                              
# Cuts associated to MASSIVE particles identified by their PDG codes.  *                                                                              
# All cuts are applied to both particles and anti-particles, so use    *                                                                              
# POSITIVE PDG CODES only. Example of the syntax is {6 : 100} or       *                                                                              
# {6:100, 25:200} for multiple particles                               *                                                                              
#***********************************************************************                                                                              
  {} = pt_min_pdg ! Min pT for a massive particle                                                                                                     
  {} = pt_max_pdg ! Max pT for a massive particle                                                                                                     
  {} = mxx_min_pdg ! inv. mass for any pair of (anti)particles                                                                                        
#***********************************************************************                                                                              
# For aMCfast+APPLGRID use in PDF fitting (http://amcfast.hepforge.org)*                                                                              
#***********************************************************************                                                                              
 0 = iappl ! aMCfast switch (0=OFF, 1=prepare grids, 2=fill grids)                                                                                    
#***********************************************************************                                                                              
  </MGRunCard>
  <scalesfunctionalform>
    muR  H_T/2 := sum_i mT(i)/2, i=final state
    muF1 H_T/2 := sum_i mT(i)/2, i=final state
    muF2 H_T/2 := sum_i mT(i)/2, i=final state
    QES  H_T/2 := sum_i mT(i)/2, i=final state
  </scalesfunctionalform>
  <MonteCarloMasses>
       1   0.320000E+00
       2   0.320000E+00
       3   0.500000E+00
       4   0.155000E+01
       5   0.495000E+01
      11   0.510999E-03
      13   0.105658E+00
      15   0.177682E+01
      21   0.750000E+00
  </MonteCarloMasses>
  <initrwgt>
    <weightgroup name='scale_variation   -1' combine='envelope'>
      <weight id='1001'> dyn=  -1 muR=0.10000E+01 muF=0.10000E+01 </weight>
      <weight id='1002'> dyn=  -1 muR=0.20000E+01 muF=0.10000E+01 </weight>
      <weight id='1003'> dyn=  -1 muR=0.50000E+00 muF=0.10000E+01 </weight>
      <weight id='1004'> dyn=  -1 muR=0.10000E+01 muF=0.20000E+01 </weight>
      <weight id='1005'> dyn=  -1 muR=0.20000E+01 muF=0.20000E+01 </weight>
      <weight id='1006'> dyn=  -1 muR=0.50000E+00 muF=0.20000E+01 </weight>
      <weight id='1007'> dyn=  -1 muR=0.10000E+01 muF=0.50000E+00 </weight>
      <weight id='1008'> dyn=  -1 muR=0.20000E+01 muF=0.50000E+00 </weight>
      <weight id='1009'> dyn=  -1 muR=0.50000E+00 muF=0.50000E+00 </weight>
    </weightgroup>
  </initrwgt>
  </header>
  <init>
   2212   2212 0.40000000E+04 0.40000000E+04 -1 -1  61100  61100 -4   1
 0.13606938E+04 0.14708221E+01 0.15478455E+04      0
  </init>
  <event>
  5      0 0.15478455E+04 0.18928364E+02 0.75467711E-02 0.14180193E+00
       -2 -1    0    0    0  501 0.00000000E+00 0.00000000E+00 0.65908897E+02 0.65909674E+02 0.32000000E+00 0.0000E+00 0.9000E+01
        2 -1    0    0  501    0 0.00000000E+00 0.00000000E+00 -.32427620E+02 0.32429199E+02 0.32000000E+00 0.0000E+00 0.9000E+01
       23  2    1    2    0    0 0.00000000E+00 0.00000000E+00 0.33481277E+02 0.98338873E+02 0.92463712E+02 0.0000E+00 0.0000E+00
      -11  1    3    3    0    0 0.21938137E+02 -.15190235E+02 0.56893463E+02 0.62840203E+02 0.51099893E-03 0.0000E+00 0.9000E+01
       11  1    3    3    0    0 -.21938137E+02 0.15190235E+02 -.23412186E+02 0.35498670E+02 0.51099893E-03 0.0000E+00 0.9000E+01
#aMCatNLO 1  0  0  1  2 0.65132846E+01 0.00000000E+00  9  5  0 0.00000000E+00 0.00000000E+00 0.00000000E+00 0.00000000E+00 0.00000000E+00
  <rwgt>
   <wgt id='1001'> 0.15479E+04 </wgt>
   <wgt id='1002'> 0.15276E+04 </wgt>
   <wgt id='1003'> 0.15704E+04 </wgt>
   <wgt id='1004'> 0.16284E+04 </wgt>
   <wgt id='1005'> 0.16173E+04 </wgt>
   <wgt id='1006'> 0.16387E+04 </wgt>
   <wgt id='1007'> 0.14840E+04 </wgt>
   <wgt id='1008'> 0.14497E+04 </wgt>
   <wgt id='1009'> 0.15255E+04 </wgt>
  </rwgt>
  </event>
  <event>
  5      0 0.15478455E+04 0.29113305E+02 0.75467711E-02 0.13470717E+00
       -2 -1    0    0    0  501 0.00000000E+00 0.00000000E+00 0.35686688E+03 0.35686703E+03 0.32000000E+00 0.0000E+00 0.9000E+01
        2 -1    0    0  501    0 0.00000000E+00 0.00000000E+00 -.54610000E+01 0.54703675E+01 0.32000000E+00 0.0000E+00 0.9000E+01
       23  2    1    2    0    0 0.00000000E+00 0.00000000E+00 0.35140588E+03 0.36233739E+03 0.88330586E+02 0.0000E+00 0.0000E+00
      -11  1    3    3    0    0 0.27242634E+02 0.24173178E+02 0.73227803E+02 0.81785175E+02 0.51099893E-03 0.0000E+00 0.9000E+01
       11  1    3    3    0    0 -.27242634E+02 -.24173178E+02 0.27817808E+03 0.28055222E+03 0.51099893E-03 0.0000E+00 0.9000E+01
#aMCatNLO 1  0  0  2  1 0.72327388E+01 0.00000000E+00  9  5  0 0.00000000E+00 0.00000000E+00 0.00000000E+00 0.00000000E+00 0.00000000E+00
  <rwgt>
   <wgt id='1001'> 0.15479E+04 </wgt>
   <wgt id='1002'> 0.15269E+04 </wgt>
   <wgt id='1003'> 0.15674E+04 </wgt>
   <wgt id='1004'> 0.13315E+04 </wgt>
   <wgt id='1005'> 0.13463E+04 </wgt>
   <wgt id='1006'> 0.13045E+04 </wgt>
   <wgt id='1007'> 0.17244E+04 </wgt>
   <wgt id='1008'> 0.16694E+04 </wgt>
   <wgt id='1009'> 0.17886E+04 </wgt>
  </rwgt>
  </event>
  <event>
  5      0 0.15478455E+04 0.45359104E+02 0.75467711E-02 0.12486855E+00
       -3 -1    0    0    0  501 0.00000000E+00 0.00000000E+00 0.45159284E+03 0.45159312E+03 0.50000000E+00 0.0000E+00 0.9000E+01
        3 -1    0    0  501    0 0.00000000E+00 0.00000000E+00 -.45619706E+01 0.45892893E+01 0.50000000E+00 0.0000E+00 0.9000E+01
       23  2    1    2    0    0 0.00000000E+00 0.00000000E+00 0.44703087E+03 0.45618241E+03 0.90916387E+02 0.0000E+00 0.0000E+00
      -11  1    3    3    0    0 0.21429314E+02 0.39977903E+02 0.20846338E+03 0.21334111E+03 0.51099893E-03 0.0000E+00 0.9000E+01
       11  1    3    3    0    0 -.21429314E+02 -.39977903E+02 0.23856749E+03 0.24284130E+03 0.51099893E-03 0.0000E+00 0.9000E+01
#aMCatNLO 1  0  0  1  1 0.30880736E+02 0.00000000E+00  9  5  0 0.00000000E+00 0.00000000E+00 0.00000000E+00 0.00000000E+00 0.00000000E+00
  <rwgt>
   <wgt id='1001'> 0.15479E+04 </wgt>
   <wgt id='1002'> 0.15486E+04 </wgt>
   <wgt id='1003'> 0.15469E+04 </wgt>
   <wgt id='1004'> 0.16875E+04 </wgt>
   <wgt id='1005'> 0.16899E+04 </wgt>
   <wgt id='1006'> 0.16845E+04 </wgt>
   <wgt id='1007'> 0.13763E+04 </wgt>
   <wgt id='1008'> 0.13757E+04 </wgt>
   <wgt id='1009'> 0.13771E+04 </wgt>
  </rwgt>
  </event>
  <event>
  5      0 0.15478455E+04 0.30312145E+02 0.75467711E-02 0.12846752E+00
        1 -1    0    0  501    0 0.00000000E+00 0.00000000E+00 0.22634993E+03 0.22635016E+03 0.32000000E+00 0.0000E+00 0.9000E+01
       -1 -1    0    0    0  501 0.00000000E+00 0.00000000E+00 -.97526786E+01 0.97579270E+01 0.32000000E+00 0.0000E+00 0.9000E+01
       23  2    1    2    0    0 0.00000000E+00 0.00000000E+00 0.21659725E+03 0.23610808E+03 0.93982220E+02 0.0000E+00 0.0000E+00
      -11  1    3    3    0    0 0.28649766E+02 0.99003547E+01 0.18089890E+02 0.35299720E+02 0.51099893E-03 0.0000E+00 0.9000E+01
       11  1    3    3    0    0 -.28649766E+02 -.99003547E+01 0.19850736E+03 0.20080836E+03 0.51099893E-03 0.0000E+00 0.9000E+01
#aMCatNLO 1  0  0  2  1 0.38175672E+02 0.00000000E+00  9  5  0 0.00000000E+00 0.00000000E+00 0.00000000E+00 0.00000000E+00 0.00000000E+00
  <rwgt>
   <wgt id='1001'> 0.15478E+04 </wgt>
   <wgt id='1002'> 0.15547E+04 </wgt>
   <wgt id='1003'> 0.15388E+04 </wgt>
   <wgt id='1004'> 0.81917E+03 </wgt>
   <wgt id='1005'> 0.92777E+03 </wgt>
   <wgt id='1006'> 0.67810E+03 </wgt>
   <wgt id='1007'> 0.21151E+04 </wgt>
   <wgt id='1008'> 0.20354E+04 </wgt>
   <wgt id='1009'> 0.22188E+04 </wgt>
  </rwgt>
  </event>
  <event>
  6      0 0.15478455E+04 0.30000000E+02 0.75467711E-02 0.12654858E+00
        1 -1    0    0  501    0 0.00000000E+00 0.00000000E+00 0.56137605E+03 0.56137615E+03 0.32000000E+00 0.0000E+00 0.9000E+01
       -1 -1    0    0    0  502 0.00000000E+00 0.00000000E+00 -.95406839E+01 0.95460489E+01 0.32000000E+00 0.0000E+00 0.9000E+01
       23  2    1    2    0    0 -.30586504E+02 -.39258237E+02 0.40461112E+03 0.41551214E+03 0.80395490E+02 0.0000E+00 0.0000E+00
      -11  1    3    3    0    0 -.75101866E+01 0.99639340E+01 0.27069389E+03 0.27098130E+03 0.51099893E-03 0.0000E+00 0.9000E+01
       11  1    3    3    0    0 -.23076317E+02 -.49222171E+02 0.13391723E+03 0.14453084E+03 0.51099893E-03 0.0000E+00 0.9000E+01
       21  1    1    2  501  502 0.30586504E+02 0.39258237E+02 0.14722425E+03 0.15541006E+03 0.75000000E+00 0.0000E+00 0.9000E+01
#aMCatNLO 2  0  0  2  1 0.49766890E+02 0.00000000E+00  9  5  0 0.00000000E+00 0.00000000E+00 0.00000000E+00 0.00000000E+00 0.00000000E+00
  <rwgt>
   <wgt id='1001'> 0.15478E+04 </wgt>
   <wgt id='1002'> 0.13917E+04 </wgt>
   <wgt id='1003'> 0.17447E+04 </wgt>
   <wgt id='1004'> 0.16269E+04 </wgt>
   <wgt id='1005'> 0.14628E+04 </wgt>
   <wgt id='1006'> 0.18338E+04 </wgt>
   <wgt id='1007'> 0.14475E+04 </wgt>
   <wgt id='1008'> 0.13015E+04 </wgt>
   <wgt id='1009'> 0.16315E+04 </wgt>
  </rwgt>
  </event>
  <event>
  6      0 0.15478455E+04 0.49618812E+02 0.75467711E-02 0.12467448E+00
        2 -1    0    0  501    0 0.00000000E+00 0.00000000E+00 0.81861793E+02 0.81862419E+02 0.32000000E+00 0.0000E+00 0.9000E+01
       -2 -1    0    0    0  502 0.00000000E+00 0.00000000E+00 -.51162660E+02 0.51163661E+02 0.32000000E+00 0.0000E+00 0.9000E+01
       23  2    1    2    0    0 -.10407796E+02 0.23253900E+02 0.16363816E+02 0.10378348E+03 0.99268168E+02 0.0000E+00 0.0000E+00
      -11  1    3    3    0    0 -.48478675E+02 0.38031234E+02 0.85934422E+01 0.62212570E+02 0.51099893E-03 0.0000E+00 0.9000E+01
       11  1    3    3    0    0 0.38070879E+02 -.14777333E+02 0.77703742E+01 0.41570905E+02 0.51099893E-03 0.0000E+00 0.9000E+01
       21  1    1    2  501  502 0.10407796E+02 -.23253900E+02 0.14335317E+02 0.29242604E+02 0.75000000E+00 0.0000E+00 0.9000E+01
#aMCatNLO 2  0  0  2  2 0.25476775E+02 0.00000000E+00  9  5  0 0.00000000E+00 0.00000000E+00 0.00000000E+00 0.00000000E+00 0.00000000E+00
  <rwgt>
   <wgt id='1001'> 0.15479E+04 </wgt>
   <wgt id='1002'> 0.13939E+04 </wgt>
   <wgt id='1003'> 0.17412E+04 </wgt>
   <wgt id='1004'> 0.16489E+04 </wgt>
   <wgt id='1005'> 0.14849E+04 </wgt>
   <wgt id='1006'> 0.18549E+04 </wgt>
   <wgt id='1007'> 0.14256E+04 </wgt>
   <wgt id='1008'> 0.12837E+04 </wgt>
   <wgt id='1009'> 0.16036E+04 </wgt>
  </rwgt>
  </event>
  <event>
  6      0 0.15478455E+04 0.33600020E+02 0.75467711E-02 0.13188918E+00
       21 -1    0    0  502  501 0.00000000E+00 0.00000000E+00 0.17497919E+01 0.19037520E+01 0.75000000E+00 0.0000E+00 0.9000E+01
        2 -1    0    0  501    0 0.00000000E+00 0.00000000E+00 -.20319981E+04 0.20319981E+04 0.32000000E+00 0.0000E+00 0.9000E+01
       23  2    1    2    0    0 0.56804599E+01 -.20558062E+02 -.15068829E+04 0.15101019E+04 0.96213049E+02 0.0000E+00 0.0000E+00
      -11  1    3    3    0    0 0.16297716E+02 0.21042105E+02 -.11929470E+04 0.11932439E+04 0.51099893E-03 0.0000E+00 0.9000E+01
       11  1    3    3    0    0 -.10617256E+02 -.41600167E+02 -.31393590E+03 0.31685809E+03 0.51099893E-03 0.0000E+00 0.9000E+01
        2  1    1    2  502    0 -.56804599E+01 0.20558062E+02 -.52336542E+03 0.52379993E+03 0.32000000E+00 0.0000E+00 0.9000E+01
#aMCatNLO 2  0  0  1  2 0.21328421E+02 0.00000000E+00  9  5  0 0.00000000E+00 0.00000000E+00 0.00000000E+00 0.00000000E+00 0.00000000E+00
  <rwgt>
   <wgt id='1001'> 0.15479E+04 </wgt>
   <wgt id='1002'> 0.13856E+04 </wgt>
   <wgt id='1003'> 0.17546E+04 </wgt>
   <wgt id='1004'> 0.15711E+04 </wgt>
   <wgt id='1005'> 0.14063E+04 </wgt>
   <wgt id='1006'> 0.17808E+04 </wgt>
   <wgt id='1007'> 0.14858E+04 </wgt>
   <wgt id='1008'> 0.13300E+04 </wgt>
   <wgt id='1009'> 0.16843E+04 </wgt>
  </rwgt>
  </event>
  <event>
  6      0 0.15478455E+04 0.30000000E+02 0.75467711E-02 0.13116382E+00
       21 -1    0    0  502  501 0.00000000E+00 0.00000000E+00 0.22428027E+02 0.22440563E+02 0.75000000E+00 0.0000E+00 0.9000E+01
        1 -1    0    0  501    0 0.00000000E+00 0.00000000E+00 -.18485645E+03 0.18485672E+03 0.32000000E+00 0.0000E+00 0.9000E+01
       23  2    1    2    0    0 0.75334161E+01 0.30320636E+02 -.11171527E+03 0.14773203E+03 0.91478737E+02 0.0000E+00 0.0000E+00
      -11  1    3    3    0    0 -.14546080E+02 -.93197382E+01 -.99158208E+02 0.10065186E+03 0.51099893E-03 0.0000E+00 0.9000E+01
       11  1    3    3    0    0 0.22079496E+02 0.39640374E+02 -.12557062E+02 0.47080178E+02 0.51099893E-03 0.0000E+00 0.9000E+01
        1  1    1    2  502    0 -.75334161E+01 -.30320636E+02 -.50713151E+02 0.59565253E+02 0.32000000E+00 0.0000E+00 0.9000E+01
#aMCatNLO 2  0  0  1  1 0.31242492E+02 0.00000000E+00  9  5  0 0.00000000E+00 0.00000000E+00 0.00000000E+00 0.00000000E+00 0.00000000E+00
  <rwgt>
   <wgt id='1001'> 0.15479E+04 </wgt>
   <wgt id='1002'> 0.13864E+04 </wgt>
   <wgt id='1003'> 0.17532E+04 </wgt>
   <wgt id='1004'> 0.16396E+04 </wgt>
   <wgt id='1005'> 0.14686E+04 </wgt>
   <wgt id='1006'> 0.18572E+04 </wgt>
   <wgt id='1007'> 0.14230E+04 </wgt>
   <wgt id='1008'> 0.12745E+04 </wgt>
   <wgt id='1009'> 0.16118E+04 </wgt>
  </rwgt>
  </event>
  <event>
  6      0 0.15478455E+04 0.33013291E+02 0.75467711E-02 0.13160483E+00
       -3 -1    0    0    0  501 0.00000000E+00 0.00000000E+00 0.28334171E+03 0.28334215E+03 0.50000000E+00 0.0000E+00 0.9000E+01
       21 -1    0    0  501  502 0.00000000E+00 0.00000000E+00 -.27969798E+02 0.27979851E+02 0.75000000E+00 0.0000E+00 0.9000E+01
       23  2    1    2    0    0 0.34944465E+01 -.22086829E+02 0.23059796E+02 0.77935609E+02 0.71008210E+02 0.0000E+00 0.0000E+00
      -11  1    3    3    0    0 -.28424277E+02 -.24700048E+02 -.13299718E+01 0.37680243E+02 0.51099893E-03 0.0000E+00 0.9000E+01
       11  1    3    3    0    0 0.31918723E+02 0.26132189E+01 0.24389768E+02 0.40255367E+02 0.51099893E-03 0.0000E+00 0.9000E+01
       -3  1    1    2    0  502 -.34944465E+01 0.22086829E+02 0.23231211E+03 0.23338639E+03 0.50000000E+00 0.0000E+00 0.9000E+01
#aMCatNLO 2  0  0  2  1 0.22361555E+02 0.00000000E+00  9  5  0 0.00000000E+00 0.00000000E+00 0.00000000E+00 0.00000000E+00 0.00000000E+00
  <rwgt>
   <wgt id='1001'> 0.15479E+04 </wgt>
   <wgt id='1002'> 0.13859E+04 </wgt>
   <wgt id='1003'> 0.17540E+04 </wgt>
   <wgt id='1004'> 0.16069E+04 </wgt>
   <wgt id='1005'> 0.14387E+04 </wgt>
   <wgt id='1006'> 0.18209E+04 </wgt>
   <wgt id='1007'> 0.14532E+04 </wgt>
   <wgt id='1008'> 0.13011E+04 </wgt>
   <wgt id='1009'> 0.16468E+04 </wgt>
  </rwgt>
  </event>
  <event>
  4      0 0.15478455E+04 0.15165981E+02 0.75467711E-02 0.14667925E+00
       -4 -1    0    0    0  501 0.00000000E+00 0.00000000E+00 0.32906081E+02 0.32942566E+02 0.15500000E+01 0.0000E+00 0.9000E+01
        4 -1    0    0  501    0 0.00000000E+00 0.00000000E+00 -.72753505E+01 0.74386306E+01 0.15500000E+01 0.0000E+00 0.9000E+01
      -11  1    1    2    0    0 0.10541959E+02 0.47055534E+01 -.76653127E+00 0.11569905E+02 0.51099893E-03 0.0000E+00 0.9000E+01
       11  1    1    2    0    0 -.10541959E+02 -.47055534E+01 0.26397262E+02 0.28811292E+02 0.51099893E-03 0.0000E+00 0.9000E+01
#aMCatNLO 1  0  0  1  2 0.19951027E+02 0.00000000E+00  9  5  0 0.00000000E+00 0.00000000E+00 0.00000000E+00 0.00000000E+00 0.00000000E+00
  <rwgt>
   <wgt id='1001'> 0.15479E+04 </wgt>
   <wgt id='1002'> 0.14792E+04 </wgt>
   <wgt id='1003'> 0.16370E+04 </wgt>
   <wgt id='1004'> 0.15320E+04 </wgt>
   <wgt id='1005'> 0.15405E+04 </wgt>
   <wgt id='1006'> 0.15130E+04 </wgt>
   <wgt id='1007'> 0.12978E+04 </wgt>
   <wgt id='1008'> 0.11967E+04 </wgt>
   <wgt id='1009'> 0.14332E+04 </wgt>
  </rwgt>
  </event>
  <event>
  5      0 0.15478455E+04 0.21389808E+02 0.75467711E-02 0.13015819E+00
        2 -1    0    0  501    0 0.00000000E+00 0.00000000E+00 0.86753465E+03 0.86753471E+03 0.32000000E+00 0.0000E+00 0.9000E+01
       -2 -1    0    0    0  501 0.00000000E+00 0.00000000E+00 -.29035743E+01 0.29211545E+01 0.32000000E+00 0.0000E+00 0.9000E+01
       23  2    1    2    0    0 0.00000000E+00 0.00000000E+00 0.86463108E+03 0.87045587E+03 0.10053116E+03 0.0000E+00 0.0000E+00
      -11  1    3    3    0    0 0.15813506E+02 0.43452965E+02 0.60295770E+03 0.60472821E+03 0.51099893E-03 0.0000E+00 0.9000E+01
       11  1    3    3    0    0 -.15813506E+02 -.43452965E+02 0.26167338E+03 0.26572765E+03 0.51099893E-03 0.0000E+00 0.9000E+01
#aMCatNLO 1  0  0  1  2 0.56656630E+01 0.00000000E+00  9  5  0 0.00000000E+00 0.00000000E+00 0.00000000E+00 0.00000000E+00 0.00000000E+00
  <rwgt>
   <wgt id='1001'> 0.15479E+04 </wgt>
   <wgt id='1002'> 0.14444E+04 </wgt>
   <wgt id='1003'> 0.16790E+04 </wgt>
   <wgt id='1004'> 0.19650E+04 </wgt>
   <wgt id='1005'> 0.18225E+04 </wgt>
   <wgt id='1006'> 0.21457E+04 </wgt>
   <wgt id='1007'> 0.11708E+04 </wgt>
   <wgt id='1008'> 0.11012E+04 </wgt>
   <wgt id='1009'> 0.12588E+04 </wgt>
  </rwgt>
  </event>
  <event>
  6      0 0.15478455E+04 0.30000000E+02 0.75467711E-02 0.13628283E+00
        1 -1    0    0  502    0 0.00000000E+00 0.00000000E+00 0.10939695E+03 0.10939742E+03 0.32000000E+00 0.0000E+00 0.9000E+01
       -1 -1    0    0    0  501 0.00000000E+00 0.00000000E+00 -.48312734E+02 0.48313794E+02 0.32000000E+00 0.0000E+00 0.9000E+01
       23  2    1    2    0    0 0.22458411E+02 0.56140039E+01 0.26079229E+01 0.94814975E+02 0.91908547E+02 0.0000E+00 0.0000E+00
      -11  1    3    3    0    0 0.32574675E+02 -.93881151E+01 0.40505198E+02 0.52819667E+02 0.51099893E-03 0.0000E+00 0.9000E+01
       11  1    3    3    0    0 -.10116264E+02 0.15002119E+02 -.37897275E+02 0.41995308E+02 0.51099893E-03 0.0000E+00 0.9000E+01
       21  1    1    2  502  501 -.22458411E+02 -.56140039E+01 0.58476294E+02 0.62896238E+02 0.75000000E+00 0.0000E+00 0.9000E+01
#aMCatNLO 2  0  0  1  2 0.23149455E+02 0.00000000E+00  9  5  0 0.00000000E+00 0.00000000E+00 0.00000000E+00 0.00000000E+00 0.00000000E+00
  <rwgt>
   <wgt id='1001'> 0.15478E+04 </wgt>
   <wgt id='1002'> 0.13805E+04 </wgt>
   <wgt id='1003'> 0.17629E+04 </wgt>
   <wgt id='1004'> 0.16632E+04 </wgt>
   <wgt id='1005'> 0.14834E+04 </wgt>
   <wgt id='1006'> 0.18943E+04 </wgt>
   <wgt id='1007'> 0.14044E+04 </wgt>
   <wgt id='1008'> 0.12526E+04 </wgt>
   <wgt id='1009'> 0.15995E+04 </wgt>
  </rwgt>
  </event>
  <event>
  4      0 0.15478455E+04 0.13400187E+02 0.75467711E-02 0.15916869E+00
        2 -1    0    0  501    0 0.00000000E+00 0.00000000E+00 0.54762798E+02 0.54763733E+02 0.32000000E+00 0.0000E+00 0.9000E+01
       -2 -1    0    0    0  501 0.00000000E+00 0.00000000E+00 -.12774695E+02 0.12778703E+02 0.32000000E+00 0.0000E+00 0.9000E+01
      -11  1    1    2    0    0 -.10109254E+02 -.78881681E+01 0.50532351E+02 0.52133854E+02 0.51099893E-03 0.0000E+00 0.9000E+01
       11  1    1    2    0    0 0.10109254E+02 0.78881681E+01 -.85442482E+01 0.15408582E+02 0.51099893E-03 0.0000E+00 0.9000E+01
#aMCatNLO 1  0  0  1  2 0.67333722E+01 0.00000000E+00  9  5  0 0.00000000E+00 0.00000000E+00 0.00000000E+00 0.00000000E+00 0.00000000E+00
  <rwgt>
   <wgt id='1001'> 0.15478E+04 </wgt>
   <wgt id='1002'> 0.14545E+04 </wgt>
   <wgt id='1003'> 0.16705E+04 </wgt>
   <wgt id='1004'> 0.18632E+04 </wgt>
   <wgt id='1005'> 0.17522E+04 </wgt>
   <wgt id='1006'> 0.20092E+04 </wgt>
   <wgt id='1007'> 0.12582E+04 </wgt>
   <wgt id='1008'> 0.11776E+04 </wgt>
   <wgt id='1009'> 0.13644E+04 </wgt>
  </rwgt>
  </event>
  <event>
  5      0 0.15478455E+04 0.17537677E+02 0.75467711E-02 0.13515087E+00
       -2 -1    0    0    0  501 0.00000000E+00 0.00000000E+00 0.12266277E+01 0.12676811E+01 0.32000000E+00 0.0000E+00 0.9000E+01
        2 -1    0    0  501    0 0.00000000E+00 0.00000000E+00 -.15300137E+04 0.15300137E+04 0.32000000E+00 0.0000E+00 0.9000E+01
       23  2    1    2    0    0 0.00000000E+00 0.00000000E+00 -.15287870E+04 0.15312814E+04 0.87366229E+02 0.0000E+00 0.0000E+00
      -11  1    3    3    0    0 -.21963890E+02 0.23773639E+02 -.25021237E+03 0.25229710E+03 0.51099893E-03 0.0000E+00 0.9000E+01
       11  1    3    3    0    0 0.21963890E+02 -.23773639E+02 -.12785747E+04 0.12789843E+04 0.51099893E-03 0.0000E+00 0.9000E+01
#aMCatNLO 1  0  0  2  1 0.12893225E+02 0.00000000E+00  9  5  0 0.00000000E+00 0.00000000E+00 0.00000000E+00 0.00000000E+00 0.00000000E+00
  <rwgt>
   <wgt id='1001'> 0.15479E+04 </wgt>
   <wgt id='1002'> 0.14895E+04 </wgt>
   <wgt id='1003'> 0.16226E+04 </wgt>
   <wgt id='1004'> 0.23759E+04 </wgt>
   <wgt id='1005'> 0.22331E+04 </wgt>
   <wgt id='1006'> 0.25600E+04 </wgt>
   <wgt id='1007'> 0.81605E+03 </wgt>
   <wgt id='1008'> 0.82950E+03 </wgt>
   <wgt id='1009'> 0.79796E+03 </wgt>
  </rwgt>
  </event>
  <event>
  5      0 0.15478455E+04 0.30000000E+02 0.75467711E-02 0.12075133E+00
       -2 -1    0    0    0  501 0.00000000E+00 0.00000000E+00 0.21587458E+02 0.21589830E+02 0.32000000E+00 0.0000E+00 0.9000E+01
        2 -1    0    0  501    0 0.00000000E+00 0.00000000E+00 -.96557390E+02 0.96557921E+02 0.32000000E+00 0.0000E+00 0.9000E+01
       23  2    1    2    0    0 0.00000000E+00 0.00000000E+00 -.74969932E+02 0.11814775E+03 0.91314842E+02 0.0000E+00 0.0000E+00
      -11  1    3    3    0    0 -.20725691E+02 0.14001766E+02 0.11935995E+02 0.27714107E+02 0.51099893E-03 0.0000E+00 0.9000E+01
       11  1    3    3    0    0 0.20725691E+02 -.14001766E+02 -.86905927E+02 0.90433644E+02 0.51099893E-03 0.0000E+00 0.9000E+01
#aMCatNLO 1  0  0  2  2 0.70499781E+02 0.00000000E+00  9  5  0 0.00000000E+00 0.00000000E+00 0.00000000E+00 0.00000000E+00 0.00000000E+00
  <rwgt>
   <wgt id='1001'> 0.15479E+04 </wgt>
   <wgt id='1002'> 0.14866E+04 </wgt>
   <wgt id='1003'> 0.16282E+04 </wgt>
   <wgt id='1004'> 0.12978E+04 </wgt>
   <wgt id='1005'> 0.12803E+04 </wgt>
   <wgt id='1006'> 0.13207E+04 </wgt>
   <wgt id='1007'> 0.17171E+04 </wgt>
   <wgt id='1008'> 0.16193E+04 </wgt>
   <wgt id='1009'> 0.18453E+04 </wgt>
  </rwgt>
  </event>
  <event>
  5      0 0.15478455E+04 0.43343765E+02 0.75467711E-02 0.11711521E+00
        1 -1    0    0  501    0 0.00000000E+00 0.00000000E+00 0.48167323E+03 0.48167334E+03 0.32000000E+00 0.0000E+00 0.9000E+01
       -1 -1    0    0    0  501 0.00000000E+00 0.00000000E+00 -.41689349E+01 0.41811982E+01 0.32000000E+00 0.0000E+00 0.9000E+01
       23  2    1    2    0    0 0.00000000E+00 0.00000000E+00 0.47750429E+03 0.48585453E+03 0.89689893E+02 0.0000E+00 0.0000E+00
      -11  1    3    3    0    0 -.27274247E+02 0.33686754E+02 0.17642377E+03 0.18167011E+03 0.51099893E-03 0.0000E+00 0.9000E+01
       11  1    3    3    0    0 0.27274247E+02 -.33686754E+02 0.30108052E+03 0.30418442E+03 0.51099893E-03 0.0000E+00 0.9000E+01
#aMCatNLO 1  0  0  2  1 0.77191407E+02 0.00000000E+00  9  5  0 0.00000000E+00 0.00000000E+00 0.00000000E+00 0.00000000E+00 0.00000000E+00
  <rwgt>
   <wgt id='1001'> 0.15478E+04 </wgt>
   <wgt id='1002'> 0.15479E+04 </wgt>
   <wgt id='1003'> 0.15477E+04 </wgt>
   <wgt id='1004'> 0.16726E+04 </wgt>
   <wgt id='1005'> 0.16743E+04 </wgt>
   <wgt id='1006'> 0.16704E+04 </wgt>
   <wgt id='1007'> 0.13971E+04 </wgt>
   <wgt id='1008'> 0.13959E+04 </wgt>
   <wgt id='1009'> 0.13986E+04 </wgt>
  </rwgt>
  </event>
  <event>
  5      0 0.15478455E+04 0.22697841E+02 0.75467711E-02 0.13066940E+00
       -1 -1    0    0    0  501 0.00000000E+00 0.00000000E+00 0.39391635E+01 0.39521398E+01 0.32000000E+00 0.0000E+00 0.9000E+01
        1 -1    0    0  501    0 0.00000000E+00 0.00000000E+00 -.52089345E+03 0.52089355E+03 0.32000000E+00 0.0000E+00 0.9000E+01
       23  2    1    2    0    0 0.00000000E+00 0.00000000E+00 -.51695429E+03 0.52484569E+03 0.90671176E+02 0.0000E+00 0.0000E+00
      -11  1    3    3    0    0 0.79647770E+01 -.29574868E+02 -.45195392E+03 0.45299057E+03 0.51099893E-03 0.0000E+00 0.9000E+01
       11  1    3    3    0    0 -.79647770E+01 0.29574868E+02 -.65000372E+02 0.71855124E+02 0.51099893E-03 0.0000E+00 0.9000E+01
#aMCatNLO 1  0  0  1  2 0.29394829E+02 0.00000000E+00  9  5  0 0.00000000E+00 0.00000000E+00 0.00000000E+00 0.00000000E+00 0.00000000E+00
  <rwgt>
   <wgt id='1001'> 0.15479E+04 </wgt>
   <wgt id='1002'> 0.15729E+04 </wgt>
   <wgt id='1003'> 0.15153E+04 </wgt>
   <wgt id='1004'> 0.15090E+04 </wgt>
   <wgt id='1005'> 0.15583E+04 </wgt>
   <wgt id='1006'> 0.14450E+04 </wgt>
   <wgt id='1007'> 0.15622E+04 </wgt>
   <wgt id='1008'> 0.15624E+04 </wgt>
   <wgt id='1009'> 0.15619E+04 </wgt>
  </rwgt>
  </event>
  <event>
  5      0 0.15478455E+04 0.22753194E+02 0.75467711E-02 0.13792883E+00
       -2 -1    0    0    0  501 0.00000000E+00 0.00000000E+00 0.10508635E+01 0.10985054E+01 0.32000000E+00 0.0000E+00 0.9000E+01
        2 -1    0    0  501    0 0.00000000E+00 0.00000000E+00 -.18914383E+04 0.18914383E+04 0.32000000E+00 0.0000E+00 0.9000E+01
       23  2    1    2    0    0 0.00000000E+00 0.00000000E+00 -.18903874E+04 0.18925368E+04 0.90172069E+02 0.0000E+00 0.0000E+00
      -11  1    3    3    0    0 -.30673449E+02 0.11028546E+02 -.15989512E+04 0.15992834E+04 0.51099893E-03 0.0000E+00 0.9000E+01
       11  1    3    3    0    0 0.30673449E+02 -.11028546E+02 -.29143628E+03 0.29325347E+03 0.51099893E-03 0.0000E+00 0.9000E+01
#aMCatNLO 1  0  0  2  1 0.48335965E+01 0.00000000E+00  9  5  0 0.00000000E+00 0.00000000E+00 0.00000000E+00 0.00000000E+00 0.00000000E+00
  <rwgt>
   <wgt id='1001'> 0.15479E+04 </wgt>
   <wgt id='1002'> 0.14913E+04 </wgt>
   <wgt id='1003'> 0.16201E+04 </wgt>
   <wgt id='1004'> 0.23745E+04 </wgt>
   <wgt id='1005'> 0.22310E+04 </wgt>
   <wgt id='1006'> 0.25593E+04 </wgt>
   <wgt id='1007'> 0.78156E+03 </wgt>
   <wgt id='1008'> 0.80324E+03 </wgt>
   <wgt id='1009'> 0.75263E+03 </wgt>
  </rwgt>
  </event>
  <event>
  5      0 0.15478455E+04 0.17835094E+02 0.75467711E-02 0.13789965E+00
        2 -1    0    0  501    0 0.00000000E+00 0.00000000E+00 0.37546490E+03 0.37546503E+03 0.32000000E+00 0.0000E+00 0.9000E+01
       -2 -1    0    0    0  501 0.00000000E+00 0.00000000E+00 -.55222569E+01 0.55315207E+01 0.32000000E+00 0.0000E+00 0.9000E+01
       23  2    1    2    0    0 0.00000000E+00 0.00000000E+00 0.36994264E+03 0.38099655E+03 0.91108821E+02 0.0000E+00 0.0000E+00
      -11  1    3    3    0    0 0.22854132E+02 -.14258566E+02 0.33859598E+03 0.33966580E+03 0.51099893E-03 0.0000E+00 0.9000E+01
       11  1    3    3    0    0 -.22854132E+02 0.14258566E+02 0.31346657E+02 0.41330751E+02 0.51099893E-03 0.0000E+00 0.9000E+01
#aMCatNLO 1  0  0  1  2 0.14646023E+02 0.00000000E+00  9  5  0 0.00000000E+00 0.00000000E+00 0.00000000E+00 0.00000000E+00 0.00000000E+00
  <rwgt>
   <wgt id='1001'> 0.15479E+04 </wgt>
   <wgt id='1002'> 0.15412E+04 </wgt>
   <wgt id='1003'> 0.15519E+04 </wgt>
   <wgt id='1004'> 0.22292E+04 </wgt>
   <wgt id='1005'> 0.21648E+04 </wgt>
   <wgt id='1006'> 0.23082E+04 </wgt>
   <wgt id='1007'> 0.10052E+04 </wgt>
   <wgt id='1008'> 0.10374E+04 </wgt>
   <wgt id='1009'> 0.95856E+03 </wgt>
  </rwgt>
  </event>
  <event>
  5      0 0.15478455E+04 0.20909973E+02 0.75467711E-02 0.13394945E+00
       -2 -1    0    0    0  501 0.00000000E+00 0.00000000E+00 0.47141959E+03 0.47141970E+03 0.32000000E+00 0.0000E+00 0.9000E+01
        2 -1    0    0  501    0 0.00000000E+00 0.00000000E+00 -.46496206E+01 0.46606193E+01 0.32000000E+00 0.0000E+00 0.9000E+01
       23  2    1    2    0    0 0.00000000E+00 0.00000000E+00 0.46676997E+03 0.47608032E+03 0.93692394E+02 0.0000E+00 0.0000E+00
      -11  1    3    3    0    0 -.33426986E+02 -.62596400E+00 0.40012722E+03 0.40152154E+03 0.51099893E-03 0.0000E+00 0.9000E+01
       11  1    3    3    0    0 0.33426986E+02 0.62596400E+00 0.66642749E+02 0.74558777E+02 0.51099893E-03 0.0000E+00 0.9000E+01
#aMCatNLO 1  0  0  1  2 0.15244458E+02 0.00000000E+00  9  5  0 0.00000000E+00 0.00000000E+00 0.00000000E+00 0.00000000E+00 0.00000000E+00
  <rwgt>
   <wgt id='1001'> 0.15479E+04 </wgt>
   <wgt id='1002'> 0.14917E+04 </wgt>
   <wgt id='1003'> 0.16194E+04 </wgt>
   <wgt id='1004'> 0.20562E+04 </wgt>
   <wgt id='1005'> 0.19528E+04 </wgt>
   <wgt id='1006'> 0.21889E+04 </wgt>
   <wgt id='1007'> 0.11043E+04 </wgt>
   <wgt id='1008'> 0.10865E+04 </wgt>
   <wgt id='1009'> 0.11265E+04 </wgt>
  </rwgt>
  </event>
  <event>
  6      0 0.15478455E+04 0.36418661E+02 0.75467711E-02 0.13344756E+00
        3 -1    0    0  502    0 0.00000000E+00 0.00000000E+00 0.23720308E+03 0.23720361E+03 0.50000000E+00 0.0000E+00 0.9000E+01
       -3 -1    0    0    0  501 0.00000000E+00 0.00000000E+00 -.91456287E+01 0.91592862E+01 0.50000000E+00 0.0000E+00 0.9000E+01
       23  2    1    2    0    0 -.10708594E+02 -.31061633E+01 0.20737611E+03 0.22285539E+03 0.80841527E+02 0.0000E+00 0.0000E+00
      -11  1    3    3    0    0 -.37991813E+01 -.37957706E+02 0.15457933E+03 0.15921680E+03 0.51099893E-03 0.0000E+00 0.9000E+01
       11  1    3    3    0    0 -.69094130E+01 0.34851542E+02 0.52796779E+02 0.63638588E+02 0.51099893E-03 0.0000E+00 0.9000E+01
       21  1    1    2  502  501 0.10708594E+02 0.31061633E+01 0.20681345E+02 0.23507505E+02 0.75000000E+00 0.0000E+00 0.9000E+01
#aMCatNLO 2  0  0  1  1 0.11149989E+02 0.00000000E+00  9  5  0 0.00000000E+00 0.00000000E+00 0.00000000E+00 0.00000000E+00 0.00000000E+00
  <rwgt>
   <wgt id='1001'> 0.15478E+04 </wgt>
   <wgt id='1002'> 0.13838E+04 </wgt>
   <wgt id='1003'> 0.17576E+04 </wgt>
   <wgt id='1004'> 0.17283E+04 </wgt>
   <wgt id='1005'> 0.15450E+04 </wgt>
   <wgt id='1006'> 0.19624E+04 </wgt>
   <wgt id='1007'> 0.13378E+04 </wgt>
   <wgt id='1008'> 0.11960E+04 </wgt>
   <wgt id='1009'> 0.15189E+04 </wgt>
  </rwgt>
  </event>
  <event>
  5      0 0.15478455E+04 0.19189322E+02 0.75467711E-02 0.14012693E+00
       -1 -1    0    0    0  501 0.00000000E+00 0.00000000E+00 0.10566352E+01 0.11040281E+01 0.32000000E+00 0.0000E+00 0.9000E+01
        1 -1    0    0  501    0 0.00000000E+00 0.00000000E+00 -.19257772E+04 0.19257772E+04 0.32000000E+00 0.0000E+00 0.9000E+01
       23  2    1    2    0    0 0.00000000E+00 0.00000000E+00 -.19247206E+04 0.19268813E+04 0.91225638E+02 0.0000E+00 0.0000E+00
      -11  1    3    3    0    0 -.30631451E+02 0.82123755E+01 -.16548318E+04 0.16551357E+04 0.51099893E-03 0.0000E+00 0.9000E+01
       11  1    3    3    0    0 0.30631451E+02 -.82123755E+01 -.26988873E+03 0.27174557E+03 0.51099893E-03 0.0000E+00 0.9000E+01
#aMCatNLO 1  0  0  2  1 0.84236412E+00 0.00000000E+00  9  5  0 0.00000000E+00 0.00000000E+00 0.00000000E+00 0.00000000E+00 0.00000000E+00
  <rwgt>
   <wgt id='1001'> 0.15479E+04 </wgt>
   <wgt id='1002'> 0.14036E+04 </wgt>
   <wgt id='1003'> 0.17344E+04 </wgt>
   <wgt id='1004'> 0.18798E+04 </wgt>
   <wgt id='1005'> 0.16997E+04 </wgt>
   <wgt id='1006'> 0.21131E+04 </wgt>
   <wgt id='1007'> 0.12188E+04 </wgt>
   <wgt id='1008'> 0.11098E+04 </wgt>
   <wgt id='1009'> 0.13598E+04 </wgt>
  </rwgt>
  </event>
  <event>
  5      0 0.15478455E+04 0.36564985E+02 0.75467711E-02 0.12976609E+00
        1 -1    0    0  501    0 0.00000000E+00 0.00000000E+00 0.60436317E+01 0.60520975E+01 0.32000000E+00 0.0000E+00 0.9000E+01
       -1 -1    0    0    0  501 0.00000000E+00 0.00000000E+00 -.34730919E+03 0.34730933E+03 0.32000000E+00 0.0000E+00 0.9000E+01
       23  2    1    2    0    0 0.00000000E+00 0.00000000E+00 -.34126555E+03 0.35336143E+03 0.91663092E+02 0.0000E+00 0.0000E+00
      -11  1    3    3    0    0 0.35637298E+02 -.81841981E+01 -.27715455E+03 0.27955616E+03 0.51099893E-03 0.0000E+00 0.9000E+01
       11  1    3    3    0    0 -.35637298E+02 0.81841981E+01 -.64111001E+02 0.73805275E+02 0.51099893E-03 0.0000E+00 0.9000E+01
#aMCatNLO 1  0  0  1  1 0.23353973E+02 0.00000000E+00  9  5  0 0.00000000E+00 0.00000000E+00 0.00000000E+00 0.00000000E+00 0.00000000E+00
  <rwgt>
   <wgt id='1001'> 0.15478E+04 </wgt>
   <wgt id='1002'> 0.15476E+04 </wgt>
   <wgt id='1003'> 0.15481E+04 </wgt>
   <wgt id='1004'> 0.16761E+04 </wgt>
   <wgt id='1005'> 0.16776E+04 </wgt>
   <wgt id='1006'> 0.16742E+04 </wgt>
   <wgt id='1007'> 0.13891E+04 </wgt>
   <wgt id='1008'> 0.13876E+04 </wgt>
   <wgt id='1009'> 0.13911E+04 </wgt>
  </rwgt>
  </event>
  <event>
  4      0 0.15478455E+04 0.15973672E+02 0.75467711E-02 0.16472498E+00
       -2 -1    0    0    0  501 0.00000000E+00 0.00000000E+00 0.62985287E+00 0.70648046E+00 0.32000000E+00 0.0000E+00 0.9000E+01
        2 -1    0    0  501    0 0.00000000E+00 0.00000000E+00 -.38227980E+03 0.38227994E+03 0.32000000E+00 0.0000E+00 0.9000E+01
      -11  1    1    2    0    0 -.17454431E+01 -.69182933E+01 -.19470232E+02 0.20736424E+02 0.51099893E-03 0.0000E+00 0.9000E+01
       11  1    1    2    0    0 0.17454431E+01 0.69182933E+01 -.36217972E+03 0.36224999E+03 0.51099893E-03 0.0000E+00 0.9000E+01
#aMCatNLO 1  0  0  2  1 0.11384452E+02 0.00000000E+00  9  5  0 0.00000000E+00 0.00000000E+00 0.00000000E+00 0.00000000E+00 0.00000000E+00
  <rwgt>
   <wgt id='1001'> 0.15479E+04 </wgt>
   <wgt id='1002'> 0.14132E+04 </wgt>
   <wgt id='1003'> 0.17406E+04 </wgt>
   <wgt id='1004'> 0.22857E+04 </wgt>
   <wgt id='1005'> 0.20702E+04 </wgt>
   <wgt id='1006'> 0.25985E+04 </wgt>
   <wgt id='1007'> 0.99155E+03 </wgt>
   <wgt id='1008'> 0.91166E+03 </wgt>
   <wgt id='1009'> 0.11039E+04 </wgt>
  </rwgt>
  </event>
  <event>
  5      0 0.15478455E+04 0.30000000E+02 0.75467711E-02 0.13429099E+00
        2 -1    0    0  501    0 0.00000000E+00 0.00000000E+00 0.93031003E+03 0.93031008E+03 0.32000000E+00 0.0000E+00 0.9000E+01
       21 -1    0    0  502  501 0.00000000E+00 0.00000000E+00 -.33813490E+01 0.34635273E+01 0.75000000E+00 0.0000E+00 0.9000E+01
      -11  1    1    2    0    0 -.90258799E+01 0.21253915E+02 0.65303998E+03 0.65344810E+03 0.51099893E-03 0.0000E+00 0.9000E+01
       11  1    1    2    0    0 -.21062243E+02 -.19247878E+02 0.10727142E+03 0.11100116E+03 0.51099893E-03 0.0000E+00 0.9000E+01
        2  1    1    2  502    0 0.30088123E+02 -.20060367E+01 0.16661727E+03 0.16932435E+03 0.32000000E+00 0.0000E+00 0.9000E+01
#aMCatNLO 2  0  0  2  2 0.30154922E+02 0.00000000E+00  9  5  0 0.00000000E+00 0.00000000E+00 0.00000000E+00 0.00000000E+00 0.00000000E+00
  <rwgt>
   <wgt id='1001'> 0.15478E+04 </wgt>
   <wgt id='1002'> 0.13828E+04 </wgt>
   <wgt id='1003'> 0.17591E+04 </wgt>
   <wgt id='1004'> 0.16684E+04 </wgt>
   <wgt id='1005'> 0.14905E+04 </wgt>
   <wgt id='1006'> 0.18962E+04 </wgt>
   <wgt id='1007'> 0.13871E+04 </wgt>
   <wgt id='1008'> 0.12392E+04 </wgt>
   <wgt id='1009'> 0.15764E+04 </wgt>
  </rwgt>
  </event>
  <event>
  5      0 0.15478455E+04 0.30000000E+02 0.75467711E-02 0.15373273E+00
        1 -1    0    0  501    0 0.00000000E+00 0.00000000E+00 0.27008757E+03 0.27008776E+03 0.32000000E+00 0.0000E+00 0.9000E+01
       -1 -1    0    0    0  501 0.00000000E+00 0.00000000E+00 -.75953850E+01 0.76021230E+01 0.32000000E+00 0.0000E+00 0.9000E+01
       23  2    1    2    0    0 0.00000000E+00 0.00000000E+00 0.26249218E+03 0.27768988E+03 0.90606421E+02 0.0000E+00 0.0000E+00
      -11  1    3    3    0    0 -.14700152E+02 0.11525461E+01 0.26253080E+03 0.26294456E+03 0.51099893E-03 0.0000E+00 0.9000E+01
       11  1    3    3    0    0 0.14700152E+02 -.11525461E+01 -.38617851E-01 0.14745316E+02 0.51099893E-03 0.0000E+00 0.9000E+01
#aMCatNLO 1  0  0  1  1 0.86946420E+01 0.00000000E+00  9  5  0 0.00000000E+00 0.00000000E+00 0.00000000E+00 0.00000000E+00 0.00000000E+00
  <rwgt>
   <wgt id='1001'> 0.15478E+04 </wgt>
   <wgt id='1002'> 0.36796E+04 </wgt>
   <wgt id='1003'> -.13463E+04 </wgt>
   <wgt id='1004'> 0.15497E+04 </wgt>
   <wgt id='1005'> 0.40289E+04 </wgt>
   <wgt id='1006'> -.18162E+04 </wgt>
   <wgt id='1007'> 0.14489E+04 </wgt>
   <wgt id='1008'> 0.31955E+04 </wgt>
   <wgt id='1009'> -.92214E+03 </wgt>
  </rwgt>
  </event>
  <event>
  5      0 0.15478455E+04 0.45701980E+02 0.75467711E-02 0.11032618E+00
       -2 -1    0    0    0  501 0.00000000E+00 0.00000000E+00 0.12154490E+02 0.12158701E+02 0.32000000E+00 0.0000E+00 0.9000E+01
        2 -1    0    0  501    0 0.00000000E+00 0.00000000E+00 -.17370515E+03 0.17370544E+03 0.32000000E+00 0.0000E+00 0.9000E+01
       23  2    1    2    0    0 0.00000000E+00 0.00000000E+00 -.16155066E+03 0.18586414E+03 0.91906827E+02 0.0000E+00 0.0000E+00
      -11  1    3    3    0    0 0.45450586E+02 0.47869867E+01 -.90483526E+02 0.10137031E+03 0.51099893E-03 0.0000E+00 0.9000E+01
       11  1    3    3    0    0 -.45450586E+02 -.47869867E+01 -.71067133E+02 0.84493836E+02 0.51099893E-03 0.0000E+00 0.9000E+01
#aMCatNLO 1  0  0  1  2 0.13032260E+03 0.00000000E+00  9  5  0 0.00000000E+00 0.00000000E+00 0.00000000E+00 0.00000000E+00 0.00000000E+00
  <rwgt>
   <wgt id='1001'> 0.15479E+04 </wgt>
   <wgt id='1002'> 0.15101E+04 </wgt>
   <wgt id='1003'> 0.15960E+04 </wgt>
   <wgt id='1004'> 0.14114E+04 </wgt>
   <wgt id='1005'> 0.14004E+04 </wgt>
   <wgt id='1006'> 0.14254E+04 </wgt>
   <wgt id='1007'> 0.16641E+04 </wgt>
   <wgt id='1008'> 0.15998E+04 </wgt>
   <wgt id='1009'> 0.17459E+04 </wgt>
  </rwgt>
  </event>
  <event>
  6      0 0.15478455E+04 0.35528256E+02 0.75467711E-02 0.13420130E+00
       21 -1    0    0  502  501 0.00000000E+00 0.00000000E+00 0.62762998E+01 0.63209524E+01 0.75000000E+00 0.0000E+00 0.9000E+01
        3 -1    0    0  501    0 0.00000000E+00 0.00000000E+00 -.45274103E+03 0.45274130E+03 0.50000000E+00 0.0000E+00 0.9000E+01
       23  2    1    2    0    0 -.10735285E+00 0.10320560E+02 -.34292388E+03 0.35500706E+03 0.91250773E+02 0.0000E+00 0.0000E+00
      -11  1    3    3    0    0 0.33586628E+02 0.16656192E+02 -.65478962E+02 0.75451871E+02 0.51099893E-03 0.0000E+00 0.9000E+01
       11  1    3    3    0    0 -.33693981E+02 -.63356313E+01 -.27744491E+03 0.27955519E+03 0.51099893E-03 0.0000E+00 0.9000E+01
        3  1    1    2  502    0 0.10735285E+00 -.10320560E+02 -.10354085E+03 0.10405519E+03 0.50000000E+00 0.0000E+00 0.9000E+01
#aMCatNLO 2  0  0  1  1 0.10321119E+02 0.00000000E+00  9  5  0 0.00000000E+00 0.00000000E+00 0.00000000E+00 0.00000000E+00 0.00000000E+00
  <rwgt>
   <wgt id='1001'> 0.15479E+04 </wgt>
   <wgt id='1002'> 0.13829E+04 </wgt>
   <wgt id='1003'> 0.17589E+04 </wgt>
   <wgt id='1004'> 0.16725E+04 </wgt>
   <wgt id='1005'> 0.14943E+04 </wgt>
   <wgt id='1006'> 0.19006E+04 </wgt>
   <wgt id='1007'> 0.13821E+04 </wgt>
   <wgt id='1008'> 0.12347E+04 </wgt>
   <wgt id='1009'> 0.15705E+04 </wgt>
  </rwgt>
  </event>
  <event>
  5      0 0.15478455E+04 0.19303492E+02 0.75467711E-02 0.14179391E+00
        3 -1    0    0  501    0 0.00000000E+00 0.00000000E+00 0.71234977E+01 0.71410237E+01 0.50000000E+00 0.0000E+00 0.9000E+01
       -3 -1    0    0    0  501 0.00000000E+00 0.00000000E+00 -.29470554E+03 0.29470596E+03 0.50000000E+00 0.0000E+00 0.9000E+01
       23  2    1    2    0    0 0.00000000E+00 0.00000000E+00 -.28758204E+03 0.30184699E+03 0.91696090E+02 0.0000E+00 0.0000E+00
      -11  1    3    3    0    0 0.24595080E+02 -.12854301E+00 -.27115972E+03 0.27227289E+03 0.51099893E-03 0.0000E+00 0.9000E+01
       11  1    3    3    0    0 -.24595080E+02 0.12854301E+00 -.16422325E+02 0.29574097E+02 0.51099893E-03 0.0000E+00 0.9000E+01
#aMCatNLO 1  0  0  1  2 0.10094829E+02 0.00000000E+00  9  5  0 0.00000000E+00 0.00000000E+00 0.00000000E+00 0.00000000E+00 0.00000000E+00
  <rwgt>
   <wgt id='1001'> 0.15478E+04 </wgt>
   <wgt id='1002'> 0.15010E+04 </wgt>
   <wgt id='1003'> 0.16038E+04 </wgt>
   <wgt id='1004'> 0.12465E+04 </wgt>
   <wgt id='1005'> 0.12533E+04 </wgt>
   <wgt id='1006'> 0.12313E+04 </wgt>
   <wgt id='1007'> 0.17408E+04 </wgt>
   <wgt id='1008'> 0.16497E+04 </wgt>
   <wgt id='1009'> 0.18557E+04 </wgt>
  </rwgt>
  </event>
  <event>
  5      0 0.15478455E+04 0.41309027E+02 0.75467711E-02 0.13093364E+00
       -1 -1    0    0    0  501 0.00000000E+00 0.00000000E+00 0.30424736E+01 0.30592557E+01 0.32000000E+00 0.0000E+00 0.9000E+01
        1 -1    0    0  501    0 0.00000000E+00 0.00000000E+00 -.63966347E+03 0.63966355E+03 0.32000000E+00 0.0000E+00 0.9000E+01
       23  2    1    2    0    0 0.00000000E+00 0.00000000E+00 -.63662100E+03 0.64272281E+03 0.88353335E+02 0.0000E+00 0.0000E+00
      -11  1    3    3    0    0 -.41276109E+02 0.16488126E+01 -.43220685E+03 0.43417646E+03 0.51099893E-03 0.0000E+00 0.9000E+01
       11  1    3    3    0    0 0.41276109E+02 -.16488126E+01 -.20441414E+03 0.20854634E+03 0.51099893E-03 0.0000E+00 0.9000E+01
#aMCatNLO 1  0  0  2  1 0.11554271E+02 0.00000000E+00  9  5  0 0.00000000E+00 0.00000000E+00 0.00000000E+00 0.00000000E+00 0.00000000E+00
  <rwgt>
   <wgt id='1001'> 0.15479E+04 </wgt>
   <wgt id='1002'> 0.15483E+04 </wgt>
   <wgt id='1003'> 0.15474E+04 </wgt>
   <wgt id='1004'> 0.16665E+04 </wgt>
   <wgt id='1005'> 0.16685E+04 </wgt>
   <wgt id='1006'> 0.16639E+04 </wgt>
   <wgt id='1007'> 0.14026E+04 </wgt>
   <wgt id='1008'> 0.14016E+04 </wgt>
   <wgt id='1009'> 0.14038E+04 </wgt>
  </rwgt>
  </event>
  <event>
  4      0 0.15478455E+04 0.20519983E+02 0.75467711E-02 0.16524615E+00
       -2 -1    0    0    0  501 0.00000000E+00 0.00000000E+00 0.20302776E+00 0.37897265E+00 0.32000000E+00 0.0000E+00 0.9000E+01
        2 -1    0    0  501    0 0.00000000E+00 0.00000000E+00 -.12056115E+04 0.12056116E+04 0.32000000E+00 0.0000E+00 0.9000E+01
      -11  1    1    2    0    0 0.12540333E+02 0.55992080E+01 -.10127719E+04 0.10128650E+04 0.51099893E-03 0.0000E+00 0.9000E+01
       11  1    1    2    0    0 -.12540333E+02 -.55992080E+01 -.19263666E+03 0.19312559E+03 0.51099893E-03 0.0000E+00 0.9000E+01
#aMCatNLO 1  0  0  2  1 0.33578407E+00 0.00000000E+00  9  5  0 0.00000000E+00 0.00000000E+00 0.00000000E+00 0.00000000E+00 0.00000000E+00
  <rwgt>
   <wgt id='1001'> 0.15479E+04 </wgt>
   <wgt id='1002'> 0.13929E+04 </wgt>
   <wgt id='1003'> 0.17582E+04 </wgt>
   <wgt id='1004'> 0.21770E+04 </wgt>
   <wgt id='1005'> 0.19488E+04 </wgt>
   <wgt id='1006'> 0.24867E+04 </wgt>
   <wgt id='1007'> 0.10214E+04 </wgt>
   <wgt id='1008'> 0.92560E+03 </wgt>
   <wgt id='1009'> 0.11513E+04 </wgt>
  </rwgt>
  </event>
  <event>
  5      0 0.15478455E+04 0.16985707E+02 0.75467711E-02 0.12734553E+00
       -1 -1    0    0    0  501 0.00000000E+00 0.00000000E+00 0.12774062E+02 0.12778070E+02 0.32000000E+00 0.0000E+00 0.9000E+01
        1 -1    0    0  501    0 0.00000000E+00 0.00000000E+00 -.16500055E+03 0.16500086E+03 0.32000000E+00 0.0000E+00 0.9000E+01
       23  2    1    2    0    0 0.00000000E+00 0.00000000E+00 -.15222648E+03 0.17777893E+03 0.91828341E+02 0.0000E+00 0.0000E+00
      -11  1    3    3    0    0 0.38894859E+02 0.10403539E+02 -.33386667E+02 0.52304046E+02 0.51099893E-03 0.0000E+00 0.9000E+01
       11  1    3    3    0    0 -.38894859E+02 -.10403539E+02 -.11883982E+03 0.12547488E+03 0.51099893E-03 0.0000E+00 0.9000E+01
#aMCatNLO 1  0  0  2  1 0.27616689E+02 0.00000000E+00  9  5  0 0.00000000E+00 0.00000000E+00 0.00000000E+00 0.00000000E+00 0.00000000E+00
  <rwgt>
   <wgt id='1001'> 0.15479E+04 </wgt>
   <wgt id='1002'> 0.17068E+04 </wgt>
   <wgt id='1003'> 0.13418E+04 </wgt>
   <wgt id='1004'> 0.68728E+03 </wgt>
   <wgt id='1005'> 0.97159E+03 </wgt>
   <wgt id='1006'> 0.32060E+03 </wgt>
   <wgt id='1007'> 0.22582E+04 </wgt>
   <wgt id='1008'> 0.23029E+04 </wgt>
   <wgt id='1009'> 0.21987E+04 </wgt>
  </rwgt>
  </event>
  <event>
  5      0 0.15478455E+04 0.30000000E+02 0.75467711E-02 0.15511466E+00
        2 -1    0    0  501    0 0.00000000E+00 0.00000000E+00 0.39940126E+03 0.39940138E+03 0.32000000E+00 0.0000E+00 0.9000E+01
       -2 -1    0    0    0  501 0.00000000E+00 0.00000000E+00 -.58127084E+01 0.58215100E+01 0.32000000E+00 0.0000E+00 0.9000E+01
       23  2    1    2    0    0 0.00000000E+00 0.00000000E+00 0.39358855E+03 0.40522289E+03 0.96403574E+02 0.0000E+00 0.0000E+00
      -11  1    3    3    0    0 -.11583930E+01 0.17168975E+02 0.75339863E+01 0.18785008E+02 0.51099893E-03 0.0000E+00 0.9000E+01
       11  1    3    3    0    0 0.11583930E+01 -.17168975E+02 0.38605456E+03 0.38643789E+03 0.51099893E-03 0.0000E+00 0.9000E+01
#aMCatNLO 1  0  0  2  1 0.31374165E+01 0.00000000E+00  9  5  0 0.00000000E+00 0.00000000E+00 0.00000000E+00 0.00000000E+00 0.00000000E+00
  <rwgt>
   <wgt id='1001'> 0.15479E+04 </wgt>
   <wgt id='1002'> 0.14872E+04 </wgt>
   <wgt id='1003'> 0.16290E+04 </wgt>
   <wgt id='1004'> 0.17444E+04 </wgt>
   <wgt id='1005'> 0.16776E+04 </wgt>
   <wgt id='1006'> 0.18337E+04 </wgt>
   <wgt id='1007'> 0.13121E+04 </wgt>
   <wgt id='1008'> 0.12598E+04 </wgt>
   <wgt id='1009'> 0.13818E+04 </wgt>
  </rwgt>
  </event>
  <event>
  5      0 0.15478455E+04 0.30000000E+02 0.75467711E-02 0.15680676E+00
       -2 -1    0    0    0  501 0.00000000E+00 0.00000000E+00 0.72385268E+00 0.79143080E+00 0.32000000E+00 0.0000E+00 0.9000E+01
        2 -1    0    0  501    0 0.00000000E+00 0.00000000E+00 -.27514045E+04 0.27514045E+04 0.32000000E+00 0.0000E+00 0.9000E+01
       23  2    1    2    0    0 0.00000000E+00 0.00000000E+00 -.27506806E+04 0.27521959E+04 0.91315499E+02 0.0000E+00 0.0000E+00
      -11  1    3    3    0    0 0.45426437E+01 0.12397544E+01 -.65801593E+01 0.80914213E+01 0.51099893E-03 0.0000E+00 0.9000E+01
       11  1    3    3    0    0 -.45426437E+01 -.12397544E+01 -.27441004E+04 0.27441045E+04 0.51099893E-03 0.0000E+00 0.9000E+01
#aMCatNLO 1  0  0  2  2 0.16822916E+02 0.00000000E+00  9  5  0 0.00000000E+00 0.00000000E+00 0.00000000E+00 0.00000000E+00 0.00000000E+00
  <rwgt>
   <wgt id='1001'> 0.15479E+04 </wgt>
   <wgt id='1002'> 0.14955E+04 </wgt>
   <wgt id='1003'> 0.16380E+04 </wgt>
   <wgt id='1004'> 0.15769E+04 </wgt>
   <wgt id='1005'> 0.15260E+04 </wgt>
   <wgt id='1006'> 0.16647E+04 </wgt>
   <wgt id='1007'> 0.14958E+04 </wgt>
   <wgt id='1008'> 0.14431E+04 </wgt>
   <wgt id='1009'> 0.15868E+04 </wgt>
  </rwgt>
  </event>
  <event>
  5      0 0.15478455E+04 0.30000000E+02 0.75467711E-02 0.13220127E+00
       -1 -1    0    0    0  501 0.00000000E+00 0.00000000E+00 0.70936934E+01 0.71009075E+01 0.32000000E+00 0.0000E+00 0.9000E+01
        1 -1    0    0  501    0 0.00000000E+00 0.00000000E+00 -.28198532E+03 0.28198551E+03 0.32000000E+00 0.0000E+00 0.9000E+01
       23  2    1    2    0    0 0.00000000E+00 0.00000000E+00 -.27489163E+03 0.28908641E+03 0.89473715E+02 0.0000E+00 0.0000E+00
      -11  1    3    3    0    0 -.79209759E+01 -.11797340E+01 -.27965425E+03 0.27976889E+03 0.51099893E-03 0.0000E+00 0.9000E+01
       11  1    3    3    0    0 0.79209759E+01 0.11797340E+01 0.47626199E+01 0.93175201E+01 0.51099893E-03 0.0000E+00 0.9000E+01
#aMCatNLO 1  0  0  1  1 0.43496383E+02 0.00000000E+00  9  5  0 0.00000000E+00 0.00000000E+00 0.00000000E+00 0.00000000E+00 0.00000000E+00
  <rwgt>
   <wgt id='1001'> 0.15479E+04 </wgt>
   <wgt id='1002'> 0.14810E+04 </wgt>
   <wgt id='1003'> 0.16456E+04 </wgt>
   <wgt id='1004'> 0.18379E+04 </wgt>
   <wgt id='1005'> 0.17600E+04 </wgt>
   <wgt id='1006'> 0.19516E+04 </wgt>
   <wgt id='1007'> 0.12131E+04 </wgt>
   <wgt id='1008'> 0.11596E+04 </wgt>
   <wgt id='1009'> 0.12913E+04 </wgt>
  </rwgt>
  </event>
  <event>
  5      0 0.15478455E+04 0.30000000E+02 0.75467711E-02 0.11753752E+00
        4 -1    0    0  501    0 0.00000000E+00 0.00000000E+00 0.15402519E+02 0.15480313E+02 0.15500000E+01 0.0000E+00 0.9000E+01
       -4 -1    0    0    0  501 0.00000000E+00 0.00000000E+00 -.13956576E+03 0.13957437E+03 0.15500000E+01 0.0000E+00 0.9000E+01
       23  2    1    2    0    0 0.00000000E+00 0.00000000E+00 -.12416324E+03 0.15505468E+03 0.92873264E+02 0.0000E+00 0.0000E+00
      -11  1    3    3    0    0 -.80792754E+01 -.28812865E+02 -.12136533E+03 0.12499999E+03 0.51099893E-03 0.0000E+00 0.9000E+01
       11  1    3    3    0    0 0.80792754E+01 0.28812865E+02 -.27979154E+01 0.30054687E+02 0.51099893E-03 0.0000E+00 0.9000E+01
#aMCatNLO 1  0  0  2  2 0.84097546E+02 0.00000000E+00  9  5  0 0.00000000E+00 0.00000000E+00 0.00000000E+00 0.00000000E+00 0.00000000E+00
  <rwgt>
   <wgt id='1001'> 0.15479E+04 </wgt>
   <wgt id='1002'> 0.15401E+04 </wgt>
   <wgt id='1003'> 0.15580E+04 </wgt>
   <wgt id='1004'> 0.17838E+04 </wgt>
   <wgt id='1005'> 0.17908E+04 </wgt>
   <wgt id='1006'> 0.17749E+04 </wgt>
   <wgt id='1007'> 0.12602E+04 </wgt>
   <wgt id='1008'> 0.12401E+04 </wgt>
   <wgt id='1009'> 0.12863E+04 </wgt>
  </rwgt>
  </event>
  <event>
  5      0 0.15478455E+04 0.23972227E+02 0.75467711E-02 0.14319970E+00
       -1 -1    0    0    0  501 0.00000000E+00 0.00000000E+00 0.18594393E+01 0.18867736E+01 0.32000000E+00 0.0000E+00 0.9000E+01
        1 -1    0    0  501    0 0.00000000E+00 0.00000000E+00 -.51974300E+03 0.51974310E+03 0.32000000E+00 0.0000E+00 0.9000E+01
       23  2    1    2    0    0 0.00000000E+00 0.00000000E+00 -.51788356E+03 0.52162987E+03 0.62404655E+02 0.0000E+00 0.0000E+00
      -11  1    3    3    0    0 -.22546980E+02 -.14292118E+02 -.39397098E+03 0.39487437E+03 0.51099893E-03 0.0000E+00 0.9000E+01
       11  1    3    3    0    0 0.22546980E+02 0.14292118E+02 -.12391258E+03 0.12675551E+03 0.51099893E-03 0.0000E+00 0.9000E+01
#aMCatNLO 1  0  0  1  2 0.35790892E+01 0.00000000E+00  9  5  0 0.00000000E+00 0.00000000E+00 0.00000000E+00 0.00000000E+00 0.00000000E+00
  <rwgt>
   <wgt id='1001'> 0.15479E+04 </wgt>
   <wgt id='1002'> 0.15712E+04 </wgt>
   <wgt id='1003'> 0.15083E+04 </wgt>
   <wgt id='1004'> 0.10217E+04 </wgt>
   <wgt id='1005'> 0.11314E+04 </wgt>
   <wgt id='1006'> 0.86810E+03 </wgt>
   <wgt id='1007'> 0.19026E+04 </wgt>
   <wgt id='1008'> 0.18561E+04 </wgt>
   <wgt id='1009'> 0.19558E+04 </wgt>
  </rwgt>
  </event>
  <event>
  5      0 0.15478455E+04 0.31175230E+02 0.75467711E-02 0.12923723E+00
       -3 -1    0    0    0  501 0.00000000E+00 0.00000000E+00 0.28603044E+02 0.28607414E+02 0.50000000E+00 0.0000E+00 0.9000E+01
        3 -1    0    0  501    0 0.00000000E+00 0.00000000E+00 -.73503000E+02 0.73504701E+02 0.50000000E+00 0.0000E+00 0.9000E+01
       23  2    1    2    0    0 0.00000000E+00 0.00000000E+00 -.44899956E+02 0.10211212E+03 0.91710839E+02 0.0000E+00 0.0000E+00
      -11  1    3    3    0    0 -.68208152E+01 0.30419919E+02 0.14991606E+02 0.34592531E+02 0.51099893E-03 0.0000E+00 0.9000E+01
       11  1    3    3    0    0 0.68208152E+01 -.30419919E+02 -.59891562E+02 0.67519584E+02 0.51099893E-03 0.0000E+00 0.9000E+01
#aMCatNLO 1  0  0  2  2 0.32400207E+02 0.00000000E+00  9  5  0 0.00000000E+00 0.00000000E+00 0.00000000E+00 0.00000000E+00 0.00000000E+00
  <rwgt>
   <wgt id='1001'> 0.15479E+04 </wgt>
   <wgt id='1002'> 0.15442E+04 </wgt>
   <wgt id='1003'> 0.15527E+04 </wgt>
   <wgt id='1004'> 0.17622E+04 </wgt>
   <wgt id='1005'> 0.17597E+04 </wgt>
   <wgt id='1006'> 0.17654E+04 </wgt>
   <wgt id='1007'> 0.12971E+04 </wgt>
   <wgt id='1008'> 0.12927E+04 </wgt>
   <wgt id='1009'> 0.13028E+04 </wgt>
  </rwgt>
  </event>
  <event>
  5      0 0.15478455E+04 0.30000000E+02 0.75467711E-02 0.14776116E+00
        1 -1    0    0  502    0 0.00000000E+00 0.00000000E+00 0.10288694E+04 0.10288695E+04 0.32000000E+00 0.0000E+00 0.9000E+01
       -1 -1    0    0    0  501 0.00000000E+00 0.00000000E+00 -.12320144E+01 0.12728941E+01 0.32000000E+00 0.0000E+00 0.9000E+01
      -11  1    1    2    0    0 0.47158551E+01 -.82254044E+00 0.52544735E+03 0.52546916E+03 0.51099893E-03 0.0000E+00 0.9000E+01
       11  1    1    2    0    0 0.17948142E+02 -.73861883E+01 0.10686012E+03 0.10860836E+03 0.51099893E-03 0.0000E+00 0.9000E+01
       21  1    1    2  502  501 -.22663997E+02 0.82087287E+01 0.39532993E+03 0.39606484E+03 0.75000000E+00 0.0000E+00 0.9000E+01
#aMCatNLO 2  0  0  1  2 0.24104771E+02 0.00000000E+00  9  5  0 0.00000000E+00 0.00000000E+00 0.00000000E+00 0.00000000E+00 0.00000000E+00
  <rwgt>
   <wgt id='1001'> 0.15478E+04 </wgt>
   <wgt id='1002'> 0.13675E+04 </wgt>
   <wgt id='1003'> 0.17851E+04 </wgt>
   <wgt id='1004'> 0.17046E+04 </wgt>
   <wgt id='1005'> 0.15059E+04 </wgt>
   <wgt id='1006'> 0.19658E+04 </wgt>
   <wgt id='1007'> 0.13614E+04 </wgt>
   <wgt id='1008'> 0.12028E+04 </wgt>
   <wgt id='1009'> 0.15702E+04 </wgt>
  </rwgt>
  </event>
  <event>
  5      0 0.15478455E+04 0.30000000E+02 0.75467711E-02 0.14246939E+00
        2 -1    0    0  501    0 0.00000000E+00 0.00000000E+00 0.21424834E+02 0.21427224E+02 0.32000000E+00 0.0000E+00 0.9000E+01
       -2 -1    0    0    0  501 0.00000000E+00 0.00000000E+00 -.98796144E+02 0.98796662E+02 0.32000000E+00 0.0000E+00 0.9000E+01
       23  2    1    2    0    0 0.00000000E+00 0.00000000E+00 -.77371309E+02 0.12022389E+03 0.92018820E+02 0.0000E+00 0.0000E+00
      -11  1    3    3    0    0 0.26665840E+02 -.83913745E+01 -.86429470E+02 0.90837963E+02 0.51099893E-03 0.0000E+00 0.9000E+01
       11  1    3    3    0    0 -.26665840E+02 0.83913745E+01 0.90581608E+01 0.29385923E+02 0.51099893E-03 0.0000E+00 0.9000E+01
#aMCatNLO 1  0  0  1  2 0.27117213E+01 0.00000000E+00  9  5  0 0.00000000E+00 0.00000000E+00 0.00000000E+00 0.00000000E+00 0.00000000E+00
  <rwgt>
   <wgt id='1001'> 0.15479E+04 </wgt>
   <wgt id='1002'> 0.15062E+04 </wgt>
   <wgt id='1003'> 0.16020E+04 </wgt>
   <wgt id='1004'> 0.17023E+04 </wgt>
   <wgt id='1005'> 0.16584E+04 </wgt>
   <wgt id='1006'> 0.17595E+04 </wgt>
   <wgt id='1007'> 0.13571E+04 </wgt>
   <wgt id='1008'> 0.13194E+04 </wgt>
   <wgt id='1009'> 0.14063E+04 </wgt>
  </rwgt>
  </event>
  <event>
  5      0 0.15478455E+04 0.36482228E+02 0.75467711E-02 0.12645301E+00
        2 -1    0    0  501    0 0.00000000E+00 0.00000000E+00 0.37500467E+02 0.37501832E+02 0.32000000E+00 0.0000E+00 0.9000E+01
       -2 -1    0    0    0  501 0.00000000E+00 0.00000000E+00 -.52358541E+02 0.52359519E+02 0.32000000E+00 0.0000E+00 0.9000E+01
       23  2    1    2    0    0 0.00000000E+00 0.00000000E+00 -.14858074E+02 0.89861351E+02 0.88624489E+02 0.0000E+00 0.0000E+00
      -11  1    3    3    0    0 0.20636102E+02 0.30084951E+02 -.32932042E+02 0.49147456E+02 0.51099893E-03 0.0000E+00 0.9000E+01
       11  1    3    3    0    0 -.20636102E+02 -.30084951E+02 0.18073969E+02 0.40713896E+02 0.51099893E-03 0.0000E+00 0.9000E+01
#aMCatNLO 1  0  0  1  1 0.36390732E+02 0.00000000E+00  9  5  0 0.00000000E+00 0.00000000E+00 0.00000000E+00 0.00000000E+00 0.00000000E+00
  <rwgt>
   <wgt id='1001'> 0.15479E+04 </wgt>
   <wgt id='1002'> 0.15472E+04 </wgt>
   <wgt id='1003'> 0.15488E+04 </wgt>
   <wgt id='1004'> 0.17001E+04 </wgt>
   <wgt id='1005'> 0.17011E+04 </wgt>
   <wgt id='1006'> 0.16989E+04 </wgt>
   <wgt id='1007'> 0.13662E+04 </wgt>
   <wgt id='1008'> 0.13643E+04 </wgt>
   <wgt id='1009'> 0.13687E+04 </wgt>
  </rwgt>
  </event>
  <event>
  4      0 0.15478455E+04 0.17102541E+02 0.75467711E-02 0.15034698E+00
       -1 -1    0    0    0  501 0.00000000E+00 0.00000000E+00 0.21719462E+03 0.21719486E+03 0.32000000E+00 0.0000E+00 0.9000E+01
        1 -1    0    0  501    0 0.00000000E+00 0.00000000E+00 -.22841738E+01 0.23064800E+01 0.32000000E+00 0.0000E+00 0.9000E+01
      -11  1    1    2    0    0 0.20562245E+02 0.91032030E+00 0.64902985E+02 0.68088413E+02 0.51099893E-03 0.0000E+00 0.9000E+01
       11  1    1    2    0    0 -.20562245E+02 -.91032030E+00 0.15000747E+03 0.15141293E+03 0.51099893E-03 0.0000E+00 0.9000E+01
#aMCatNLO 1  0  0  1  2 0.28865292E+01 0.00000000E+00  9  5  0 0.00000000E+00 0.00000000E+00 0.00000000E+00 0.00000000E+00 0.00000000E+00
  <rwgt>
   <wgt id='1001'> 0.15478E+04 </wgt>
   <wgt id='1002'> 0.14947E+04 </wgt>
   <wgt id='1003'> 0.16164E+04 </wgt>
   <wgt id='1004'> 0.20064E+04 </wgt>
   <wgt id='1005'> 0.19226E+04 </wgt>
   <wgt id='1006'> 0.21156E+04 </wgt>
   <wgt id='1007'> 0.11938E+04 </wgt>
   <wgt id='1008'> 0.11572E+04 </wgt>
   <wgt id='1009'> 0.12410E+04 </wgt>
  </rwgt>
  </event>
  <event>
  5      0 0.15478455E+04 0.30000000E+02 0.75467711E-02 0.11848669E+00
       -1 -1    0    0    0  501 0.00000000E+00 0.00000000E+00 0.21574752E+01 0.21810775E+01 0.32000000E+00 0.0000E+00 0.9000E+01
        1 -1    0    0  501    0 0.00000000E+00 0.00000000E+00 -.93866968E+03 0.93866973E+03 0.32000000E+00 0.0000E+00 0.9000E+01
       23  2    1    2    0    0 0.00000000E+00 0.00000000E+00 -.93651220E+03 0.94085081E+03 0.90250433E+02 0.0000E+00 0.0000E+00
      -11  1    3    3    0    0 0.20260673E+02 0.21160443E+02 -.11044905E+03 0.11426833E+03 0.51099893E-03 0.0000E+00 0.9000E+01
       11  1    3    3    0    0 -.20260673E+02 -.21160443E+02 -.82606316E+03 0.82658248E+03 0.51099893E-03 0.0000E+00 0.9000E+01
#aMCatNLO 1  0  0  2  2 0.88228798E+02 0.00000000E+00  9  5  0 0.00000000E+00 0.00000000E+00 0.00000000E+00 0.00000000E+00 0.00000000E+00
  <rwgt>
   <wgt id='1001'> 0.15479E+04 </wgt>
   <wgt id='1002'> 0.15495E+04 </wgt>
   <wgt id='1003'> 0.15458E+04 </wgt>
   <wgt id='1004'> 0.16613E+04 </wgt>
   <wgt id='1005'> 0.16649E+04 </wgt>
   <wgt id='1006'> 0.16568E+04 </wgt>
   <wgt id='1007'> 0.14033E+04 </wgt>
   <wgt id='1008'> 0.14032E+04 </wgt>
   <wgt id='1009'> 0.14034E+04 </wgt>
  </rwgt>
  </event>
  <event>
  6      0 0.15478455E+04 0.30000000E+02 0.75467711E-02 0.11956294E+00
       -1 -1    0    0    0  501 0.00000000E+00 0.00000000E+00 0.50022157E+03 0.50022167E+03 0.32000000E+00 0.0000E+00 0.9000E+01
       21 -1    0    0  501  502 0.00000000E+00 0.00000000E+00 -.27490051E+02 0.27500280E+02 0.75000000E+00 0.0000E+00 0.9000E+01
       23  2    1    2    0    0 -.46346101E+01 -.75809846E+02 0.41710812E+03 0.43358016E+03 0.90796236E+02 0.0000E+00 0.0000E+00
      -11  1    3    3    0    0 0.22862617E+02 -.40773170E+02 0.34955051E+03 0.35266232E+03 0.51099893E-03 0.0000E+00 0.9000E+01
       11  1    3    3    0    0 -.27497227E+02 -.35036676E+02 0.67557609E+02 0.80917839E+02 0.51099893E-03 0.0000E+00 0.9000E+01
       -1  1    1    2    0  502 0.46346101E+01 0.75809846E+02 0.55623395E+02 0.94141791E+02 0.32000000E+00 0.0000E+00 0.9000E+01
#aMCatNLO 2  0  0  2  1 0.75951382E+02 0.00000000E+00  9  5  0 0.00000000E+00 0.00000000E+00 0.00000000E+00 0.00000000E+00 0.00000000E+00
  <rwgt>
   <wgt id='1001'> 0.15479E+04 </wgt>
   <wgt id='1002'> 0.13997E+04 </wgt>
   <wgt id='1003'> 0.17319E+04 </wgt>
   <wgt id='1004'> 0.15371E+04 </wgt>
   <wgt id='1005'> 0.13901E+04 </wgt>
   <wgt id='1006'> 0.17199E+04 </wgt>
   <wgt id='1007'> 0.15402E+04 </wgt>
   <wgt id='1008'> 0.13928E+04 </wgt>
   <wgt id='1009'> 0.17233E+04 </wgt>
  </rwgt>
  </event>
  <event>
  5      0 0.15478455E+04 0.32327313E+02 0.75467711E-02 0.11655435E+00
       -1 -1    0    0    0  501 0.00000000E+00 0.00000000E+00 0.72899375E+01 0.72969575E+01 0.32000000E+00 0.0000E+00 0.9000E+01
        1 -1    0    0  501    0 0.00000000E+00 0.00000000E+00 -.28228796E+03 0.28228814E+03 0.32000000E+00 0.0000E+00 0.9000E+01
       23  2    1    2    0    0 0.00000000E+00 0.00000000E+00 -.27499802E+03 0.28958510E+03 0.90750301E+02 0.0000E+00 0.0000E+00
      -11  1    3    3    0    0 0.28775215E+02 0.14732350E+02 -.35894075E+02 0.48305691E+02 0.51099893E-03 0.0000E+00 0.9000E+01
       11  1    3    3    0    0 -.28775215E+02 -.14732350E+02 -.23910395E+03 0.24127941E+03 0.51099893E-03 0.0000E+00 0.9000E+01
#aMCatNLO 1  0  0  2  1 0.94868323E+02 0.00000000E+00  9  5  0 0.00000000E+00 0.00000000E+00 0.00000000E+00 0.00000000E+00 0.00000000E+00
  <rwgt>
   <wgt id='1001'> 0.15479E+04 </wgt>
   <wgt id='1002'> 0.15377E+04 </wgt>
   <wgt id='1003'> 0.15611E+04 </wgt>
   <wgt id='1004'> 0.16122E+04 </wgt>
   <wgt id='1005'> 0.16123E+04 </wgt>
   <wgt id='1006'> 0.16120E+04 </wgt>
   <wgt id='1007'> 0.14536E+04 </wgt>
   <wgt id='1008'> 0.14337E+04 </wgt>
   <wgt id='1009'> 0.14794E+04 </wgt>
  </rwgt>
  </event>
  <event>
  5      0 0.15478455E+04 0.43157932E+02 0.75467711E-02 0.12108621E+00
       -2 -1    0    0    0  501 0.00000000E+00 0.00000000E+00 0.99542346E+01 0.99593768E+01 0.32000000E+00 0.0000E+00 0.9000E+01
        2 -1    0    0  501    0 0.00000000E+00 0.00000000E+00 -.19803815E+03 0.19803841E+03 0.32000000E+00 0.0000E+00 0.9000E+01
       23  2    1    2    0    0 0.00000000E+00 0.00000000E+00 -.18808392E+03 0.20799779E+03 0.88811708E+02 0.0000E+00 0.0000E+00
      -11  1    3    3    0    0 -.29869644E+02 0.31151428E+02 -.69560092E+02 0.81860940E+02 0.51099893E-03 0.0000E+00 0.9000E+01
       11  1    3    3    0    0 0.29869644E+02 -.31151428E+02 -.11852382E+03 0.12613685E+03 0.51099893E-03 0.0000E+00 0.9000E+01
#aMCatNLO 1  0  0  1  2 0.53326812E+02 0.00000000E+00  9  5  0 0.00000000E+00 0.00000000E+00 0.00000000E+00 0.00000000E+00 0.00000000E+00
  <rwgt>
   <wgt id='1001'> 0.15479E+04 </wgt>
   <wgt id='1002'> 0.15461E+04 </wgt>
   <wgt id='1003'> 0.15501E+04 </wgt>
   <wgt id='1004'> 0.16949E+04 </wgt>
   <wgt id='1005'> 0.16946E+04 </wgt>
   <wgt id='1006'> 0.16953E+04 </wgt>
   <wgt id='1007'> 0.13760E+04 </wgt>
   <wgt id='1008'> 0.13732E+04 </wgt>
   <wgt id='1009'> 0.13796E+04 </wgt>
  </rwgt>
  </event>
  <event>
  6      0 0.15478455E+04 0.42369765E+02 0.75467711E-02 0.12480605E+00
       -1 -1    0    0    0  502 0.00000000E+00 0.00000000E+00 0.16136890E+03 0.16136922E+03 0.32000000E+00 0.0000E+00 0.9000E+01
        1 -1    0    0  501    0 0.00000000E+00 0.00000000E+00 -.35304400E+02 0.35305850E+02 0.32000000E+00 0.0000E+00 0.9000E+01
       23  2    1    2    0    0 0.17572007E+01 0.35947987E+02 0.44984614E+02 0.10796286E+03 0.91307271E+02 0.0000E+00 0.0000E+00
      -11  1    3    3    0    0 -.58999210E+01 -.27025157E+02 -.38204117E+01 0.27924249E+02 0.51099893E-03 0.0000E+00 0.9000E+01
       11  1    3    3    0    0 0.76571216E+01 0.62973144E+02 0.48805026E+02 0.80038609E+02 0.51099893E-03 0.0000E+00 0.9000E+01
       21  1    1    2  501  502 -.17572007E+01 -.35947987E+02 0.81079888E+02 0.88712210E+02 0.75000000E+00 0.0000E+00 0.9000E+01
#aMCatNLO 2  0  0  1  2 0.35990909E+02 0.00000000E+00  9  5  0 0.00000000E+00 0.00000000E+00 0.00000000E+00 0.00000000E+00 0.00000000E+00
  <rwgt>
   <wgt id='1001'> 0.15479E+04 </wgt>
   <wgt id='1002'> 0.13937E+04 </wgt>
   <wgt id='1003'> 0.17414E+04 </wgt>
   <wgt id='1004'> 0.16316E+04 </wgt>
   <wgt id='1005'> 0.14691E+04 </wgt>
   <wgt id='1006'> 0.18357E+04 </wgt>
   <wgt id='1007'> 0.14411E+04 </wgt>
   <wgt id='1008'> 0.12976E+04 </wgt>
   <wgt id='1009'> 0.16214E+04 </wgt>
  </rwgt>
  </event>
  <event>
  4      0 0.15478455E+04 0.17237026E+02 0.75467711E-02 0.15953599E+00
        4 -1    0    0  501    0 0.00000000E+00 0.00000000E+00 0.84908365E+00 0.17673265E+01 0.15500000E+01 0.0000E+00 0.9000E+01
       -4 -1    0    0    0  501 0.00000000E+00 0.00000000E+00 -.17831883E+03 0.17832557E+03 0.15500000E+01 0.0000E+00 0.9000E+01
      -11  1    1    2    0    0 -.13119212E+02 -.58212623E+01 -.57350776E+02 0.59119475E+02 0.51099893E-03 0.0000E+00 0.9000E+01
       11  1    1    2    0    0 0.13119212E+02 0.58212623E+01 -.12011897E+03 0.12097342E+03 0.51099893E-03 0.0000E+00 0.9000E+01
#aMCatNLO 1  0  0  2  1 0.38933182E+01 0.00000000E+00  9  5  0 0.00000000E+00 0.00000000E+00 0.00000000E+00 0.00000000E+00 0.00000000E+00
  <rwgt>
   <wgt id='1001'> 0.15478E+04 </wgt>
   <wgt id='1002'> 0.14990E+04 </wgt>
   <wgt id='1003'> 0.16098E+04 </wgt>
   <wgt id='1004'> 0.19255E+04 </wgt>
   <wgt id='1005'> 0.18978E+04 </wgt>
   <wgt id='1006'> 0.19573E+04 </wgt>
   <wgt id='1007'> 0.12675E+04 </wgt>
   <wgt id='1008'> 0.11900E+04 </wgt>
   <wgt id='1009'> 0.13698E+04 </wgt>
  </rwgt>
  </event>
  <event>
  6      0 0.15478455E+04 0.43816167E+02 0.75467711E-02 0.11917530E+00
        2 -1    0    0  501    0 0.00000000E+00 0.00000000E+00 0.12386049E+04 0.12386049E+04 0.32000000E+00 0.0000E+00 0.9000E+01
       21 -1    0    0  502  501 0.00000000E+00 0.00000000E+00 -.90496009E+01 0.90806265E+01 0.75000000E+00 0.0000E+00 0.9000E+01
       23  2    1    2    0    0 -.42553517E+02 -.46387718E+02 0.39947871E+03 0.41522544E+03 0.94161043E+02 0.0000E+00 0.0000E+00
      -11  1    3    3    0    0 -.49822184E+02 0.10177927E+02 0.12621146E+03 0.13607047E+03 0.51099893E-03 0.0000E+00 0.9000E+01
       11  1    3    3    0    0 0.72686671E+01 -.56565645E+02 0.27326725E+03 0.27915497E+03 0.51099893E-03 0.0000E+00 0.9000E+01
        2  1    1    2  502    0 0.42553517E+02 0.46387718E+02 0.83007658E+03 0.83246012E+03 0.32000000E+00 0.0000E+00 0.9000E+01
#aMCatNLO 2  0  0  2  1 0.62949362E+02 0.00000000E+00  9  5  0 0.00000000E+00 0.00000000E+00 0.00000000E+00 0.00000000E+00 0.00000000E+00
  <rwgt>
   <wgt id='1001'> 0.15479E+04 </wgt>
   <wgt id='1002'> 0.14002E+04 </wgt>
   <wgt id='1003'> 0.17312E+04 </wgt>
   <wgt id='1004'> 0.15512E+04 </wgt>
   <wgt id='1005'> 0.14032E+04 </wgt>
   <wgt id='1006'> 0.17349E+04 </wgt>
   <wgt id='1007'> 0.15222E+04 </wgt>
   <wgt id='1008'> 0.13770E+04 </wgt>
   <wgt id='1009'> 0.17024E+04 </wgt>
  </rwgt>
  </event>
  <event>
  5      0 0.15478455E+04 0.29688232E+02 0.75467711E-02 0.13060184E+00
        1 -1    0    0  501    0 0.00000000E+00 0.00000000E+00 0.16485409E+03 0.16485440E+03 0.32000000E+00 0.0000E+00 0.9000E+01
       -1 -1    0    0    0  501 0.00000000E+00 0.00000000E+00 -.12799830E+02 0.12803830E+02 0.32000000E+00 0.0000E+00 0.9000E+01
       23  2    1    2    0    0 0.00000000E+00 0.00000000E+00 0.15205426E+03 0.17765823E+03 0.91880079E+02 0.0000E+00 0.0000E+00
      -11  1    3    3    0    0 -.23287375E+02 -.39449057E+02 0.69340927E+02 0.83106523E+02 0.51099893E-03 0.0000E+00 0.9000E+01
       11  1    3    3    0    0 0.23287375E+02 0.39449057E+02 0.82713334E+02 0.94551709E+02 0.51099893E-03 0.0000E+00 0.9000E+01
#aMCatNLO 1  0  0  2  1 0.45876823E+01 0.00000000E+00  9  5  0 0.00000000E+00 0.00000000E+00 0.00000000E+00 0.00000000E+00 0.00000000E+00
  <rwgt>
   <wgt id='1001'> 0.15478E+04 </wgt>
   <wgt id='1002'> 0.14973E+04 </wgt>
   <wgt id='1003'> 0.16114E+04 </wgt>
   <wgt id='1004'> 0.16724E+04 </wgt>
   <wgt id='1005'> 0.16199E+04 </wgt>
   <wgt id='1006'> 0.17385E+04 </wgt>
   <wgt id='1007'> 0.13944E+04 </wgt>
   <wgt id='1008'> 0.13473E+04 </wgt>
   <wgt id='1009'> 0.14538E+04 </wgt>
  </rwgt>
  </event>
  <event>
  5      0 0.15478455E+04 0.33774444E+02 0.75467711E-02 0.12795888E+00
       -1 -1    0    0    0  501 0.00000000E+00 0.00000000E+00 0.13440924E+01 0.13816600E+01 0.32000000E+00 0.0000E+00 0.9000E+01
        1 -1    0    0  501    0 0.00000000E+00 0.00000000E+00 -.15841295E+04 0.15841295E+04 0.32000000E+00 0.0000E+00 0.9000E+01
       23  2    1    2    0    0 0.00000000E+00 0.00000000E+00 -.15827854E+04 0.15855112E+04 0.92930589E+02 0.0000E+00 0.0000E+00
      -11  1    3    3    0    0 -.39025283E+02 -.24701450E+02 -.87820286E+03 0.87941651E+03 0.51099893E-03 0.0000E+00 0.9000E+01
       11  1    3    3    0    0 0.39025283E+02 0.24701450E+02 -.70458256E+03 0.70609469E+03 0.51099893E-03 0.0000E+00 0.9000E+01
#aMCatNLO 1  0  0  1  2 0.15321373E+02 0.00000000E+00  9  5  0 0.00000000E+00 0.00000000E+00 0.00000000E+00 0.00000000E+00 0.00000000E+00
  <rwgt>
   <wgt id='1001'> 0.15479E+04 </wgt>
   <wgt id='1002'> 0.15154E+04 </wgt>
   <wgt id='1003'> 0.15862E+04 </wgt>
   <wgt id='1004'> 0.13978E+04 </wgt>
   <wgt id='1005'> 0.13861E+04 </wgt>
   <wgt id='1006'> 0.14097E+04 </wgt>
   <wgt id='1007'> 0.16761E+04 </wgt>
   <wgt id='1008'> 0.16231E+04 </wgt>
   <wgt id='1009'> 0.17407E+04 </wgt>
  </rwgt>
  </event>
  <event>
  5      0 0.15478455E+04 0.42254511E+02 0.75467711E-02 0.13353364E+00
        1 -1    0    0  501    0 0.00000000E+00 0.00000000E+00 0.36164639E+02 0.36166055E+02 0.32000000E+00 0.0000E+00 0.9000E+01
       -1 -1    0    0    0  501 0.00000000E+00 0.00000000E+00 -.55023241E+02 0.55024172E+02 0.32000000E+00 0.0000E+00 0.9000E+01
       23  2    1    2    0    0 0.00000000E+00 0.00000000E+00 -.18858602E+02 0.91190226E+02 0.89218891E+02 0.0000E+00 0.0000E+00
      -11  1    3    3    0    0 0.10398953E+02 0.40954920E+02 -.24047730E+02 0.48618279E+02 0.51099893E-03 0.0000E+00 0.9000E+01
       11  1    3    3    0    0 -.10398953E+02 -.40954920E+02 0.51891273E+01 0.42571948E+02 0.51099893E-03 0.0000E+00 0.9000E+01
#aMCatNLO 1  0  0  2  1 0.45876823E+01 0.00000000E+00  9  5  0 0.00000000E+00 0.00000000E+00 0.00000000E+00 0.00000000E+00 0.00000000E+00
  <rwgt>
   <wgt id='1001'> 0.15478E+04 </wgt>
   <wgt id='1002'> 0.13837E+04 </wgt>
   <wgt id='1003'> 0.17577E+04 </wgt>
   <wgt id='1004'> 0.17151E+04 </wgt>
   <wgt id='1005'> 0.15331E+04 </wgt>
   <wgt id='1006'> 0.19476E+04 </wgt>
   <wgt id='1007'> 0.13549E+04 </wgt>
   <wgt id='1008'> 0.12112E+04 </wgt>
   <wgt id='1009'> 0.15385E+04 </wgt>
  </rwgt>
  </event>
  <event>
  5      0 0.15478455E+04 0.30000000E+02 0.75467711E-02 0.12257977E+00
        2 -1    0    0  501    0 0.00000000E+00 0.00000000E+00 0.12187918E+02 0.12192118E+02 0.32000000E+00 0.0000E+00 0.9000E+01
       -2 -1    0    0    0  501 0.00000000E+00 0.00000000E+00 -.16288620E+03 0.16288652E+03 0.32000000E+00 0.0000E+00 0.9000E+01
       23  2    1    2    0    0 0.00000000E+00 0.00000000E+00 -.15069828E+03 0.17507863E+03 0.89121016E+02 0.0000E+00 0.0000E+00
      -11  1    3    3    0    0 0.18588257E+02 -.20480218E+02 -.67129357E+01 0.28460958E+02 0.51099893E-03 0.0000E+00 0.9000E+01
       11  1    3    3    0    0 -.18588257E+02 0.20480218E+02 -.14398535E+03 0.14661768E+03 0.51099893E-03 0.0000E+00 0.9000E+01
#aMCatNLO 1  0  0  1  1 0.60494877E+02 0.00000000E+00  9  5  0 0.00000000E+00 0.00000000E+00 0.00000000E+00 0.00000000E+00 0.00000000E+00
  <rwgt>
   <wgt id='1001'> 0.15479E+04 </wgt>
   <wgt id='1002'> 0.14845E+04 </wgt>
   <wgt id='1003'> 0.16305E+04 </wgt>
   <wgt id='1004'> 0.10592E+04 </wgt>
   <wgt id='1005'> 0.10640E+04 </wgt>
   <wgt id='1006'> 0.10530E+04 </wgt>
   <wgt id='1007'> 0.19333E+04 </wgt>
   <wgt id='1008'> 0.18114E+04 </wgt>
   <wgt id='1009'> 0.20924E+04 </wgt>
  </rwgt>
  </event>
  <event>
  5      0 0.15478455E+04 0.14790892E+02 0.75467711E-02 0.13312357E+00
        2 -1    0    0  501    0 0.00000000E+00 0.00000000E+00 0.71339287E+02 0.71340005E+02 0.32000000E+00 0.0000E+00 0.9000E+01
       -2 -1    0    0    0  501 0.00000000E+00 0.00000000E+00 -.27699266E+02 0.27701114E+02 0.32000000E+00 0.0000E+00 0.9000E+01
       23  2    1    2    0    0 0.00000000E+00 0.00000000E+00 0.43640021E+02 0.99041119E+02 0.88908334E+02 0.0000E+00 0.0000E+00
      -11  1    3    3    0    0 -.34575509E+02 0.13206043E+01 0.52910784E+02 0.63219940E+02 0.51099893E-03 0.0000E+00 0.9000E+01
       11  1    3    3    0    0 0.34575509E+02 -.13206043E+01 -.92707629E+01 0.35821179E+02 0.51099893E-03 0.0000E+00 0.9000E+01
#aMCatNLO 1  0  0  2  1 0.15724365E+02 0.00000000E+00  9  5  0 0.00000000E+00 0.00000000E+00 0.00000000E+00 0.00000000E+00 0.00000000E+00
  <rwgt>
   <wgt id='1001'> 0.15479E+04 </wgt>
   <wgt id='1002'> 0.15106E+04 </wgt>
   <wgt id='1003'> 0.15939E+04 </wgt>
   <wgt id='1004'> 0.16859E+04 </wgt>
   <wgt id='1005'> 0.16482E+04 </wgt>
   <wgt id='1006'> 0.17324E+04 </wgt>
   <wgt id='1007'> 0.14219E+04 </wgt>
   <wgt id='1008'> 0.13816E+04 </wgt>
   <wgt id='1009'> 0.14721E+04 </wgt>
  </rwgt>
  </event>
  <event>
  5      0 0.15478455E+04 0.42954452E+02 0.75467711E-02 0.11453680E+00
        2 -1    0    0  501    0 0.00000000E+00 0.00000000E+00 0.14976818E+02 0.14980236E+02 0.32000000E+00 0.0000E+00 0.9000E+01
       -2 -1    0    0    0  501 0.00000000E+00 0.00000000E+00 -.12919231E+03 0.12919271E+03 0.32000000E+00 0.0000E+00 0.9000E+01
       23  2    1    2    0    0 0.00000000E+00 0.00000000E+00 -.11421549E+03 0.14417294E+03 0.87981014E+02 0.0000E+00 0.0000E+00
      -11  1    3    3    0    0 0.42066804E+02 -.86872861E+01 -.72660537E+02 0.84407574E+02 0.51099893E-03 0.0000E+00 0.9000E+01
       11  1    3    3    0    0 -.42066804E+02 0.86872861E+01 -.41554955E+02 0.59765368E+02 0.51099893E-03 0.0000E+00 0.9000E+01
#aMCatNLO 1  0  0  1  1 0.95491763E+02 0.00000000E+00  9  5  0 0.00000000E+00 0.00000000E+00 0.00000000E+00 0.00000000E+00 0.00000000E+00
  <rwgt>
   <wgt id='1001'> 0.15479E+04 </wgt>
   <wgt id='1002'> 0.15199E+04 </wgt>
   <wgt id='1003'> 0.15835E+04 </wgt>
   <wgt id='1004'> 0.11958E+04 </wgt>
   <wgt id='1005'> 0.12182E+04 </wgt>
   <wgt id='1006'> 0.11671E+04 </wgt>
   <wgt id='1007'> 0.18660E+04 </wgt>
   <wgt id='1008'> 0.17890E+04 </wgt>
   <wgt id='1009'> 0.19643E+04 </wgt>
  </rwgt>
  </event>
  <event>
  5      0 0.15478455E+04 0.30000000E+02 0.75467711E-02 0.12738004E+00
       -2 -1    0    0    0  501 0.00000000E+00 0.00000000E+00 0.24149749E+03 0.24149770E+03 0.32000000E+00 0.0000E+00 0.9000E+01
        2 -1    0    0  501    0 0.00000000E+00 0.00000000E+00 -.82026688E+01 0.82089083E+01 0.32000000E+00 0.0000E+00 0.9000E+01
       23  2    1    2    0    0 0.00000000E+00 0.00000000E+00 0.23329482E+03 0.24970661E+03 0.89033239E+02 0.0000E+00 0.0000E+00
      -11  1    3    3    0    0 0.67707912E+01 0.39666122E+00 0.24004313E+03 0.24013893E+03 0.51099893E-03 0.0000E+00 0.9000E+01
       11  1    3    3    0    0 -.67707912E+01 -.39666122E+00 -.67483057E+01 0.95676843E+01 0.51099893E-03 0.0000E+00 0.9000E+01
#aMCatNLO 1  0  0  2  2 0.55735480E+02 0.00000000E+00  9  5  0 0.00000000E+00 0.00000000E+00 0.00000000E+00 0.00000000E+00 0.00000000E+00
  <rwgt>
   <wgt id='1001'> 0.15479E+04 </wgt>
   <wgt id='1002'> 0.13635E+04 </wgt>
   <wgt id='1003'> 0.18307E+04 </wgt>
   <wgt id='1004'> 0.14083E+04 </wgt>
   <wgt id='1005'> 0.12547E+04 </wgt>
   <wgt id='1006'> 0.16439E+04 </wgt>
   <wgt id='1007'> 0.14808E+04 </wgt>
   <wgt id='1008'> 0.12952E+04 </wgt>
   <wgt id='1009'> 0.17654E+04 </wgt>
  </rwgt>
  </event>
  <event>
  6      0 0.15478455E+04 0.45567218E+02 0.75467711E-02 0.12482803E+00
        1 -1    0    0  502    0 0.00000000E+00 0.00000000E+00 0.24693093E+03 0.24693114E+03 0.32000000E+00 0.0000E+00 0.9000E+01
       -1 -1    0    0    0  501 0.00000000E+00 0.00000000E+00 -.18261249E+02 0.18264052E+02 0.32000000E+00 0.0000E+00 0.9000E+01
       23  2    1    2    0    0 0.11216841E+01 -.30743880E+02 0.12966954E+03 0.16152246E+03 0.91262649E+02 0.0000E+00 0.0000E+00
      -11  1    3    3    0    0 0.42433112E+02 0.34293944E+01 0.53355329E+02 0.68257753E+02 0.51099893E-03 0.0000E+00 0.9000E+01
       11  1    3    3    0    0 -.41311428E+02 -.34173275E+02 0.76314208E+02 0.93264704E+02 0.51099893E-03 0.0000E+00 0.9000E+01
       21  1    1    2  502  501 -.11216841E+01 0.30743880E+02 0.99000143E+02 0.10367273E+03 0.75000000E+00 0.0000E+00 0.9000E+01
#aMCatNLO 2  0  0  1  2 0.30764335E+02 0.00000000E+00  9  5  0 0.00000000E+00 0.00000000E+00 0.00000000E+00 0.00000000E+00 0.00000000E+00
  <rwgt>
   <wgt id='1001'> 0.15478E+04 </wgt>
   <wgt id='1002'> 0.13937E+04 </wgt>
   <wgt id='1003'> 0.17415E+04 </wgt>
   <wgt id='1004'> 0.16413E+04 </wgt>
   <wgt id='1005'> 0.14779E+04 </wgt>
   <wgt id='1006'> 0.18467E+04 </wgt>
   <wgt id='1007'> 0.14331E+04 </wgt>
   <wgt id='1008'> 0.12904E+04 </wgt>
   <wgt id='1009'> 0.16124E+04 </wgt>
  </rwgt>
  </event>
  <event>
  4      0 0.15478455E+04 0.20146567E+02 0.75467711E-02 0.16471614E+00
       -2 -1    0    0    0  501 0.00000000E+00 0.00000000E+00 0.34200395E+00 0.46836599E+00 0.32000000E+00 0.0000E+00 0.9000E+01
        2 -1    0    0  501    0 0.00000000E+00 0.00000000E+00 -.69660720E+03 0.69660728E+03 0.32000000E+00 0.0000E+00 0.9000E+01
      -11  1    1    2    0    0 -.56215105E+01 -.12782479E+02 -.15429907E+03 0.15492965E+03 0.51099893E-03 0.0000E+00 0.9000E+01
       11  1    1    2    0    0 0.56215105E+01 0.12782479E+02 -.54196613E+03 0.54214599E+03 0.51099893E-03 0.0000E+00 0.9000E+01
#aMCatNLO 1  0  0  2  1 0.29376942E+00 0.00000000E+00  9  5  0 0.00000000E+00 0.00000000E+00 0.00000000E+00 0.00000000E+00 0.00000000E+00
  <rwgt>
   <wgt id='1001'> 0.15479E+04 </wgt>
   <wgt id='1002'> 0.14134E+04 </wgt>
   <wgt id='1003'> 0.17282E+04 </wgt>
   <wgt id='1004'> 0.22217E+04 </wgt>
   <wgt id='1005'> 0.20149E+04 </wgt>
   <wgt id='1006'> 0.25001E+04 </wgt>
   <wgt id='1007'> 0.10051E+04 </wgt>
   <wgt id='1008'> 0.92574E+03 </wgt>
   <wgt id='1009'> 0.11111E+04 </wgt>
  </rwgt>
  </event>
  <event>
  5      0 -.15478455E+04 0.30000000E+02 0.75467711E-02 0.14849295E+00
       -2 -1    0    0    0  501 0.00000000E+00 0.00000000E+00 0.26189417E+02 0.26191372E+02 0.32000000E+00 0.0000E+00 0.9000E+01
        2 -1    0    0  502    0 0.00000000E+00 0.00000000E+00 -.21428235E+02 0.21430624E+02 0.32000000E+00 0.0000E+00 0.9000E+01
      -11  1    1    2    0    0 -.10692402E+02 0.14268575E+02 0.30866326E+01 0.18095496E+02 0.51099893E-03 0.0000E+00 0.9000E+01
       11  1    1    2    0    0 0.18106884E+02 -.10048574E+02 0.27692397E+01 0.20892625E+02 0.51099893E-03 0.0000E+00 0.9000E+01
       21  1    1    2  502  501 -.74144821E+01 -.42200010E+01 -.10946902E+01 0.86338752E+01 0.75000000E+00 0.0000E+00 0.9000E+01
#aMCatNLO 2  0  0  2  1 0.85312926E+01 0.00000000E+00  9  5  0 0.00000000E+00 0.00000000E+00 0.00000000E+00 0.00000000E+00 0.00000000E+00
  <rwgt>
   <wgt id='1001'> -.15479E+04 </wgt>
   <wgt id='1002'> -.13666E+04 </wgt>
   <wgt id='1003'> -.17866E+04 </wgt>
   <wgt id='1004'> -.18781E+04 </wgt>
   <wgt id='1005'> -.16582E+04 </wgt>
   <wgt id='1006'> -.21677E+04 </wgt>
   <wgt id='1007'> -.12083E+04 </wgt>
   <wgt id='1008'> -.10668E+04 </wgt>
   <wgt id='1009'> -.13946E+04 </wgt>
  </rwgt>
  </event>
  <event>
  5      0 0.15478455E+04 0.21339098E+02 0.75467711E-02 0.12769405E+00
       -2 -1    0    0    0  501 0.00000000E+00 0.00000000E+00 0.44138300E+01 0.44254147E+01 0.32000000E+00 0.0000E+00 0.9000E+01
        2 -1    0    0  501    0 0.00000000E+00 0.00000000E+00 -.46516556E+03 0.46516567E+03 0.32000000E+00 0.0000E+00 0.9000E+01
       23  2    1    2    0    0 0.00000000E+00 0.00000000E+00 -.46075173E+03 0.46959108E+03 0.90684234E+02 0.0000E+00 0.0000E+00
      -11  1    3    3    0    0 -.10292906E+01 -.44146318E+02 -.28367744E+03 0.28709379E+03 0.51099893E-03 0.0000E+00 0.9000E+01
       11  1    3    3    0    0 0.10292906E+01 0.44146318E+02 -.17707429E+03 0.18249729E+03 0.51099893E-03 0.0000E+00 0.9000E+01
#aMCatNLO 1  0  0  2  1 0.19832477E+02 0.00000000E+00  9  5  0 0.00000000E+00 0.00000000E+00 0.00000000E+00 0.00000000E+00 0.00000000E+00
  <rwgt>
   <wgt id='1001'> 0.15479E+04 </wgt>
   <wgt id='1002'> 0.14929E+04 </wgt>
   <wgt id='1003'> 0.16170E+04 </wgt>
   <wgt id='1004'> 0.20965E+04 </wgt>
   <wgt id='1005'> 0.19945E+04 </wgt>
   <wgt id='1006'> 0.22256E+04 </wgt>
   <wgt id='1007'> 0.10797E+04 </wgt>
   <wgt id='1008'> 0.10617E+04 </wgt>
   <wgt id='1009'> 0.11017E+04 </wgt>
  </rwgt>
  </event>
  <event>
  4      0 -.15478455E+04 0.27778197E+02 0.75467711E-02 0.15416972E+00
       -2 -1    0    0    0  501 0.00000000E+00 0.00000000E+00 0.79780942E+00 0.85959285E+00 0.32000000E+00 0.0000E+00 0.9000E+01
        2 -1    0    0  501    0 0.00000000E+00 0.00000000E+00 -.45966428E+03 0.45966440E+03 0.32000000E+00 0.0000E+00 0.9000E+01
      -11  1    1    2    0    0 0.17536214E+02 0.82546102E+01 -.20222787E+03 0.20315454E+03 0.51099893E-03 0.0000E+00 0.9000E+01
       11  1    1    2    0    0 -.17536214E+02 -.82546102E+01 -.25663861E+03 0.25736945E+03 0.51099893E-03 0.0000E+00 0.9000E+01
#aMCatNLO 1  0  0  1  1 0.99170829E-01 0.00000000E+00  9  5  0 0.00000000E+00 0.00000000E+00 0.00000000E+00 0.00000000E+00 0.00000000E+00
  <rwgt>
   <wgt id='1001'> -.15479E+04 </wgt>
   <wgt id='1002'> -.13171E+04 </wgt>
   <wgt id='1003'> -.18562E+04 </wgt>
   <wgt id='1004'> -.22934E+04 </wgt>
   <wgt id='1005'> -.19638E+04 </wgt>
   <wgt id='1006'> -.27338E+04 </wgt>
   <wgt id='1007'> -.89651E+03 </wgt>
   <wgt id='1008'> -.75356E+03 </wgt>
   <wgt id='1009'> -.10876E+04 </wgt>
  </rwgt>
  </event>
  <event>
  5      0 0.15478455E+04 0.23806676E+02 0.75467711E-02 0.12251257E+00
        1 -1    0    0  501    0 0.00000000E+00 0.00000000E+00 0.16559505E+04 0.16559505E+04 0.32000000E+00 0.0000E+00 0.9000E+01
       -1 -1    0    0    0  501 0.00000000E+00 0.00000000E+00 -.16232368E+01 0.16544781E+01 0.32000000E+00 0.0000E+00 0.9000E+01
       23  2    1    2    0    0 0.00000000E+00 0.00000000E+00 0.16543272E+04 0.16576050E+04 0.10419056E+03 0.0000E+00 0.0000E+00
      -11  1    3    3    0    0 -.31479183E+01 -.49561415E+02 0.10775401E+04 0.10786839E+04 0.51099893E-03 0.0000E+00 0.9000E+01
       11  1    3    3    0    0 0.31479183E+01 0.49561415E+02 0.57678712E+03 0.57892109E+03 0.51099893E-03 0.0000E+00 0.9000E+01
#aMCatNLO 1  0  0  2  1 0.36934045E+02 0.00000000E+00  9  5  0 0.00000000E+00 0.00000000E+00 0.00000000E+00 0.00000000E+00 0.00000000E+00
  <rwgt>
   <wgt id='1001'> 0.15478E+04 </wgt>
   <wgt id='1002'> 0.17084E+04 </wgt>
   <wgt id='1003'> 0.13427E+04 </wgt>
   <wgt id='1004'> -.46744E+02 </wgt>
   <wgt id='1005'> 0.28793E+03 </wgt>
   <wgt id='1006'> -.47271E+03 </wgt>
   <wgt id='1007'> 0.30908E+04 </wgt>
   <wgt id='1008'> 0.30779E+04 </wgt>
   <wgt id='1009'> 0.31057E+04 </wgt>
  </rwgt>
  </event>
  <event>
  5      0 -.15478455E+04 0.30000000E+02 0.75467711E-02 0.24811523E+00
        1 -1    0    0  501    0 0.00000000E+00 0.00000000E+00 0.12706695E+03 0.12706735E+03 0.32000000E+00 0.0000E+00 0.9000E+01
       -1 -1    0    0    0  501 0.00000000E+00 0.00000000E+00 -.16514468E+02 0.16517568E+02 0.32000000E+00 0.0000E+00 0.9000E+01
       23  2    1    2    0    0 0.00000000E+00 0.00000000E+00 0.11055248E+03 0.14358492E+03 0.91623022E+02 0.0000E+00 0.0000E+00
      -11  1    3    3    0    0 0.23006450E+01 0.21103696E+01 -.16349318E+02 0.16644724E+02 0.51099893E-03 0.0000E+00 0.9000E+01
       11  1    3    3    0    0 -.23006450E+01 -.21103696E+01 0.12690180E+03 0.12694020E+03 0.51099893E-03 0.0000E+00 0.9000E+01
#aMCatNLO 1  0  0  2  1 0.36934045E+02 0.00000000E+00  9  5  0 0.00000000E+00 0.00000000E+00 0.00000000E+00 0.00000000E+00 0.00000000E+00
  <rwgt>
   <wgt id='1001'> -.15478E+04 </wgt>
   <wgt id='1002'> -.12468E+04 </wgt>
   <wgt id='1003'> -.20922E+04 </wgt>
   <wgt id='1004'> -.21184E+04 </wgt>
   <wgt id='1005'> -.17063E+04 </wgt>
   <wgt id='1006'> -.28635E+04 </wgt>
   <wgt id='1007'> -.94123E+03 </wgt>
   <wgt id='1008'> -.75812E+03 </wgt>
   <wgt id='1009'> -.12723E+04 </wgt>
  </rwgt>
  </event>
  <event>
  5      0 0.15478455E+04 0.30000000E+02 0.75467711E-02 0.12403591E+00
        4 -1    0    0  501    0 0.00000000E+00 0.00000000E+00 0.44518028E+01 0.47139207E+01 0.15500000E+01 0.0000E+00 0.9000E+01
       -4 -1    0    0    0  501 0.00000000E+00 0.00000000E+00 -.44980044E+03 0.44980311E+03 0.15500000E+01 0.0000E+00 0.9000E+01
       23  2    1    2    0    0 0.00000000E+00 0.00000000E+00 -.44534864E+03 0.45451703E+03 0.90831289E+02 0.0000E+00 0.0000E+00
      -11  1    3    3    0    0 -.12260912E+02 -.23743114E+02 -.40643078E+03 0.40730829E+03 0.51099893E-03 0.0000E+00 0.9000E+01
       11  1    3    3    0    0 0.12260912E+02 0.23743114E+02 -.38917852E+02 0.47208735E+02 0.51099893E-03 0.0000E+00 0.9000E+01
#aMCatNLO 1  0  0  1  1 0.65410115E+02 0.00000000E+00  9  5  0 0.00000000E+00 0.00000000E+00 0.00000000E+00 0.00000000E+00 0.00000000E+00
  <rwgt>
   <wgt id='1001'> 0.15479E+04 </wgt>
   <wgt id='1002'> 0.15452E+04 </wgt>
   <wgt id='1003'> 0.15513E+04 </wgt>
   <wgt id='1004'> 0.19163E+04 </wgt>
   <wgt id='1005'> 0.19151E+04 </wgt>
   <wgt id='1006'> 0.19178E+04 </wgt>
   <wgt id='1007'> 0.11349E+04 </wgt>
   <wgt id='1008'> 0.11318E+04 </wgt>
   <wgt id='1009'> 0.11391E+04 </wgt>
  </rwgt>
  </event>
  <event>
  4      0 0.15478455E+04 0.30000000E+02 0.75467711E-02 0.12949234E+00
        3 -1    0    0  501    0 0.00000000E+00 0.00000000E+00 0.37277125E+02 0.37280478E+02 0.50000000E+00 0.0000E+00 0.9000E+01
       -3 -1    0    0    0  501 0.00000000E+00 0.00000000E+00 -.20745117E+02 0.20751142E+02 0.50000000E+00 0.0000E+00 0.9000E+01
      -11  1    1    2    0    0 -.53990714E+01 0.20352570E+02 0.27223302E+02 0.34416352E+02 0.51099893E-03 0.0000E+00 0.9000E+01
       11  1    1    2    0    0 0.53990714E+01 -.20352570E+02 -.10691294E+02 0.23615268E+02 0.51099893E-03 0.0000E+00 0.9000E+01
#aMCatNLO 1  0  0  2  1 0.46467857E+02 0.00000000E+00  9  5  0 0.00000000E+00 0.00000000E+00 0.00000000E+00 0.00000000E+00 0.00000000E+00
  <rwgt>
   <wgt id='1001'> 0.15478E+04 </wgt>
   <wgt id='1002'> 0.15458E+04 </wgt>
   <wgt id='1003'> 0.15505E+04 </wgt>
   <wgt id='1004'> 0.18774E+04 </wgt>
   <wgt id='1005'> 0.18772E+04 </wgt>
   <wgt id='1006'> 0.18777E+04 </wgt>
   <wgt id='1007'> 0.11914E+04 </wgt>
   <wgt id='1008'> 0.11885E+04 </wgt>
   <wgt id='1009'> 0.11953E+04 </wgt>
  </rwgt>
  </event>
  <event>
  5      0 0.15478455E+04 0.30000000E+02 0.75467711E-02 0.10621142E+00
        1 -1    0    0  501    0 0.00000000E+00 0.00000000E+00 0.58871856E+01 0.58958761E+01 0.32000000E+00 0.0000E+00 0.9000E+01
       -1 -1    0    0    0  501 0.00000000E+00 0.00000000E+00 -.35240988E+03 0.35241002E+03 0.32000000E+00 0.0000E+00 0.9000E+01
       23  2    1    2    0    0 0.00000000E+00 0.00000000E+00 -.34652269E+03 0.35830590E+03 0.91132548E+02 0.0000E+00 0.0000E+00
      -11  1    3    3    0    0 -.18449213E+02 -.20952378E+02 -.31485224E+03 0.31608750E+03 0.51099893E-03 0.0000E+00 0.9000E+01
       11  1    3    3    0    0 0.18449213E+02 0.20952378E+02 -.31670454E+02 0.42218399E+02 0.51099893E-03 0.0000E+00 0.9000E+01
#aMCatNLO 1  0  0  1  1 0.19101353E+03 0.00000000E+00  9  5  0 0.00000000E+00 0.00000000E+00 0.00000000E+00 0.00000000E+00 0.00000000E+00
  <rwgt>
   <wgt id='1001'> 0.15478E+04 </wgt>
   <wgt id='1002'> 0.14672E+04 </wgt>
   <wgt id='1003'> 0.16531E+04 </wgt>
   <wgt id='1004'> 0.13633E+04 </wgt>
   <wgt id='1005'> 0.13135E+04 </wgt>
   <wgt id='1006'> 0.14283E+04 </wgt>
   <wgt id='1007'> 0.17261E+04 </wgt>
   <wgt id='1008'> 0.16133E+04 </wgt>
   <wgt id='1009'> 0.18731E+04 </wgt>
  </rwgt>
  </event>
  <event>
  6      0 0.15478455E+04 0.30000000E+02 0.75467711E-02 0.13587055E+00
       21 -1    0    0  501  502 0.00000000E+00 0.00000000E+00 0.13602239E+03 0.13602446E+03 0.75000000E+00 0.0000E+00 0.9000E+01
       -2 -1    0    0    0  501 0.00000000E+00 0.00000000E+00 -.23868611E+02 0.23870756E+02 0.32000000E+00 0.0000E+00 0.9000E+01
       23  2    1    2    0    0 -.69981619E+00 0.19917654E+02 0.99671635E+02 0.13637694E+03 0.90923227E+02 0.0000E+00 0.0000E+00
      -11  1    3    3    0    0 -.19022352E+02 -.99642725E+01 -.81746073E+01 0.22977398E+02 0.51099893E-03 0.0000E+00 0.9000E+01
       11  1    3    3    0    0 0.18322536E+02 0.29881927E+02 0.10784624E+03 0.11339955E+03 0.51099893E-03 0.0000E+00 0.9000E+01
       -2  1    1    2    0  502 0.69981619E+00 -.19917654E+02 0.12482141E+02 0.23518268E+02 0.32000000E+00 0.0000E+00 0.9000E+01
#aMCatNLO 2  0  0  1  1 0.19929945E+02 0.00000000E+00  9  5  0 0.00000000E+00 0.00000000E+00 0.00000000E+00 0.00000000E+00 0.00000000E+00
  <rwgt>
   <wgt id='1001'> 0.15479E+04 </wgt>
   <wgt id='1002'> 0.13810E+04 </wgt>
   <wgt id='1003'> 0.17621E+04 </wgt>
   <wgt id='1004'> 0.16188E+04 </wgt>
   <wgt id='1005'> 0.14443E+04 </wgt>
   <wgt id='1006'> 0.18429E+04 </wgt>
   <wgt id='1007'> 0.14445E+04 </wgt>
   <wgt id='1008'> 0.12888E+04 </wgt>
   <wgt id='1009'> 0.16445E+04 </wgt>
  </rwgt>
  </event>
  <event>
  5      0 0.15478455E+04 0.43871210E+02 0.75467711E-02 0.11611071E+00
       -2 -1    0    0    0  501 0.00000000E+00 0.00000000E+00 0.35916901E+01 0.36059170E+01 0.32000000E+00 0.0000E+00 0.9000E+01
        2 -1    0    0  501    0 0.00000000E+00 0.00000000E+00 -.58179364E+03 0.58179373E+03 0.32000000E+00 0.0000E+00 0.9000E+01
       23  2    1    2    0    0 0.00000000E+00 0.00000000E+00 -.57820195E+03 0.58539964E+03 0.91516389E+02 0.0000E+00 0.0000E+00
      -11  1    3    3    0    0 0.40588206E+02 -.16651744E+02 -.20591252E+03 0.21053420E+03 0.51099893E-03 0.0000E+00 0.9000E+01
       11  1    3    3    0    0 -.40588206E+02 0.16651744E+02 -.37228942E+03 0.37486544E+03 0.51099893E-03 0.0000E+00 0.9000E+01
#aMCatNLO 1  0  0  1  1 0.83999616E+02 0.00000000E+00  9  5  0 0.00000000E+00 0.00000000E+00 0.00000000E+00 0.00000000E+00 0.00000000E+00
  <rwgt>
   <wgt id='1001'> 0.15479E+04 </wgt>
   <wgt id='1002'> 0.15497E+04 </wgt>
   <wgt id='1003'> 0.15455E+04 </wgt>
   <wgt id='1004'> 0.16830E+04 </wgt>
   <wgt id='1005'> 0.16866E+04 </wgt>
   <wgt id='1006'> 0.16784E+04 </wgt>
   <wgt id='1007'> 0.13875E+04 </wgt>
   <wgt id='1008'> 0.13879E+04 </wgt>
   <wgt id='1009'> 0.13871E+04 </wgt>
  </rwgt>
  </event>
  <event>
  4      0 0.15478455E+04 0.30000000E+02 0.75467711E-02 0.14986124E+00
       -2 -1    0    0    0  501 0.00000000E+00 0.00000000E+00 0.10889783E+01 0.11350215E+01 0.32000000E+00 0.0000E+00 0.9000E+01
        2 -1    0    0  501    0 0.00000000E+00 0.00000000E+00 -.22973881E+03 0.22973903E+03 0.32000000E+00 0.0000E+00 0.9000E+01
      -11  1    1    2    0    0 0.90009334E+01 0.12631226E+02 -.14225306E+03 0.14309612E+03 0.51099893E-03 0.0000E+00 0.9000E+01
       11  1    1    2    0    0 -.90009334E+01 -.12631226E+02 -.86396763E+02 0.87777932E+02 0.51099893E-03 0.0000E+00 0.9000E+01
#aMCatNLO 1  0  0  1  2 0.11799075E+02 0.00000000E+00  9  5  0 0.00000000E+00 0.00000000E+00 0.00000000E+00 0.00000000E+00 0.00000000E+00
  <rwgt>
   <wgt id='1001'> 0.15479E+04 </wgt>
   <wgt id='1002'> 0.15491E+04 </wgt>
   <wgt id='1003'> 0.15462E+04 </wgt>
   <wgt id='1004'> 0.18925E+04 </wgt>
   <wgt id='1005'> 0.18967E+04 </wgt>
   <wgt id='1006'> 0.18868E+04 </wgt>
   <wgt id='1007'> 0.11926E+04 </wgt>
   <wgt id='1008'> 0.11920E+04 </wgt>
   <wgt id='1009'> 0.11935E+04 </wgt>
  </rwgt>
  </event>
  <event>
  6      0 0.15478455E+04 0.30000000E+02 0.75467711E-02 0.14168406E+00
       -2 -1    0    0    0  502 0.00000000E+00 0.00000000E+00 0.10603048E+02 0.10607876E+02 0.32000000E+00 0.0000E+00 0.9000E+01
        2 -1    0    0  501    0 0.00000000E+00 0.00000000E+00 -.31742940E+03 0.31742956E+03 0.32000000E+00 0.0000E+00 0.9000E+01
       23  2    1    2    0    0 0.84356291E+01 -.13705094E+02 -.20159326E+03 0.22157826E+03 0.90543331E+02 0.0000E+00 0.0000E+00
      -11  1    3    3    0    0 0.18582134E+02 -.23717796E+02 -.13620581E+02 0.33065840E+02 0.51099893E-03 0.0000E+00 0.9000E+01
       11  1    3    3    0    0 -.10146505E+02 0.10012702E+02 -.18797267E+03 0.18851242E+03 0.51099893E-03 0.0000E+00 0.9000E+01
       21  1    1    2  501  502 -.84356291E+01 0.13705094E+02 -.10523310E+03 0.10645918E+03 0.75000000E+00 0.0000E+00 0.9000E+01
#aMCatNLO 2  0  0  1  2 0.16093149E+02 0.00000000E+00  9  5  0 0.00000000E+00 0.00000000E+00 0.00000000E+00 0.00000000E+00 0.00000000E+00
  <rwgt>
   <wgt id='1001'> 0.15479E+04 </wgt>
   <wgt id='1002'> 0.13744E+04 </wgt>
   <wgt id='1003'> 0.17732E+04 </wgt>
   <wgt id='1004'> 0.17027E+04 </wgt>
   <wgt id='1005'> 0.15118E+04 </wgt>
   <wgt id='1006'> 0.19507E+04 </wgt>
   <wgt id='1007'> 0.13670E+04 </wgt>
   <wgt id='1008'> 0.12136E+04 </wgt>
   <wgt id='1009'> 0.15660E+04 </wgt>
  </rwgt>
  </event>
  <event>
  6      0 0.15478455E+04 0.46783441E+02 0.75467711E-02 0.12951788E+00
        1 -1    0    0  501    0 0.00000000E+00 0.00000000E+00 0.31103921E+02 0.31105567E+02 0.32000000E+00 0.0000E+00 0.9000E+01
       21 -1    0    0  502  501 0.00000000E+00 0.00000000E+00 -.88013174E+02 0.88016369E+02 0.75000000E+00 0.0000E+00 0.9000E+01
       23  2    1    2    0    0 0.72610056E+01 -.13953275E+01 -.58269899E+02 0.11159712E+03 0.94888705E+02 0.0000E+00 0.0000E+00
      -11  1    3    3    0    0 0.54228618E+01 0.46054650E+02 -.38052091E+02 0.59986664E+02 0.51099893E-03 0.0000E+00 0.9000E+01
       11  1    3    3    0    0 0.18381438E+01 -.47449977E+02 -.20217809E+02 0.51610454E+02 0.51099893E-03 0.0000E+00 0.9000E+01
        1  1    1    2  502    0 -.72610056E+01 0.13953275E+01 0.13606464E+01 0.75248189E+01 0.32000000E+00 0.0000E+00 0.9000E+01
#aMCatNLO 2  0  0  2  1 0.73938583E+01 0.00000000E+00  9  5  0 0.00000000E+00 0.00000000E+00 0.00000000E+00 0.00000000E+00 0.00000000E+00
  <rwgt>
   <wgt id='1001'> 0.15478E+04 </wgt>
   <wgt id='1002'> 0.13883E+04 </wgt>
   <wgt id='1003'> 0.17502E+04 </wgt>
   <wgt id='1004'> 0.16278E+04 </wgt>
   <wgt id='1005'> 0.14600E+04 </wgt>
   <wgt id='1006'> 0.18406E+04 </wgt>
   <wgt id='1007'> 0.14379E+04 </wgt>
   <wgt id='1008'> 0.12897E+04 </wgt>
   <wgt id='1009'> 0.16258E+04 </wgt>
  </rwgt>
  </event>
  <event>
  5      0 0.15478455E+04 0.38418416E+02 0.75467711E-02 0.13001793E+00
        2 -1    0    0  501    0 0.00000000E+00 0.00000000E+00 0.43482078E+03 0.43482090E+03 0.32000000E+00 0.0000E+00 0.9000E+01
       -2 -1    0    0    0  501 0.00000000E+00 0.00000000E+00 -.42534692E+01 0.42654894E+01 0.32000000E+00 0.0000E+00 0.9000E+01
       23  2    1    2    0    0 0.00000000E+00 0.00000000E+00 0.43056731E+03 0.43908639E+03 0.86073493E+02 0.0000E+00 0.0000E+00
      -11  1    3    3    0    0 -.23633044E+02 -.30289502E+02 0.11634128E+03 0.12252048E+03 0.51099893E-03 0.0000E+00 0.9000E+01
       11  1    3    3    0    0 0.23633044E+02 0.30289502E+02 0.31422603E+03 0.31656591E+03 0.51099893E-03 0.0000E+00 0.9000E+01
#aMCatNLO 1  0  0  1  1 0.20043698E+02 0.00000000E+00  9  5  0 0.00000000E+00 0.00000000E+00 0.00000000E+00 0.00000000E+00 0.00000000E+00
  <rwgt>
   <wgt id='1001'> 0.15479E+04 </wgt>
   <wgt id='1002'> 0.16050E+04 </wgt>
   <wgt id='1003'> 0.14745E+04 </wgt>
   <wgt id='1004'> 0.16958E+04 </wgt>
   <wgt id='1005'> 0.17614E+04 </wgt>
   <wgt id='1006'> 0.16116E+04 </wgt>
   <wgt id='1007'> 0.13733E+04 </wgt>
   <wgt id='1008'> 0.14216E+04 </wgt>
   <wgt id='1009'> 0.13114E+04 </wgt>
  </rwgt>
  </event>
  <event>
  5      0 0.15478455E+04 0.35880202E+02 0.75467711E-02 0.12395583E+00
        2 -1    0    0  501    0 0.00000000E+00 0.00000000E+00 0.13101180E+04 0.13101181E+04 0.32000000E+00 0.0000E+00 0.9000E+01
       -2 -1    0    0    0  501 0.00000000E+00 0.00000000E+00 -.15841398E+01 0.16161370E+01 0.32000000E+00 0.0000E+00 0.9000E+01
       23  2    1    2    0    0 0.00000000E+00 0.00000000E+00 0.13085339E+04 0.13117342E+04 0.91573388E+02 0.0000E+00 0.0000E+00
      -11  1    3    3    0    0 0.53271735E+01 -.35482533E+02 0.10617031E+04 0.10623092E+04 0.51099893E-03 0.0000E+00 0.9000E+01
       11  1    3    3    0    0 -.53271735E+01 0.35482533E+02 0.24683083E+03 0.24942503E+03 0.51099893E-03 0.0000E+00 0.9000E+01
#aMCatNLO 1  0  0  2  1 0.47073615E+02 0.00000000E+00  9  5  0 0.00000000E+00 0.00000000E+00 0.00000000E+00 0.00000000E+00 0.00000000E+00
  <rwgt>
   <wgt id='1001'> 0.15479E+04 </wgt>
   <wgt id='1002'> 0.15324E+04 </wgt>
   <wgt id='1003'> 0.15677E+04 </wgt>
   <wgt id='1004'> 0.88951E+03 </wgt>
   <wgt id='1005'> 0.95669E+03 </wgt>
   <wgt id='1006'> 0.80297E+03 </wgt>
   <wgt id='1007'> 0.21054E+04 </wgt>
   <wgt id='1008'> 0.20156E+04 </wgt>
   <wgt id='1009'> 0.22211E+04 </wgt>
  </rwgt>
  </event>
  <event>
  5      0 0.15478455E+04 0.30000000E+02 0.75467711E-02 0.14223441E+00
       21 -1    0    0  502  501 0.00000000E+00 0.00000000E+00 0.73951557E+01 0.74330900E+01 0.75000000E+00 0.0000E+00 0.9000E+01
        4 -1    0    0  501    0 0.00000000E+00 0.00000000E+00 -.17371927E+03 0.17372619E+03 0.15500000E+01 0.0000E+00 0.9000E+01
      -11  1    1    2    0    0 -.25799762E+01 -.22725609E+02 -.51394020E+02 0.56253487E+02 0.51099893E-03 0.0000E+00 0.9000E+01
       11  1    1    2    0    0 0.34357010E+01 0.29404973E+02 -.11417946E+03 0.11795510E+03 0.51099893E-03 0.0000E+00 0.9000E+01
        4  1    1    2  502    0 -.85572479E+00 -.66793641E+01 -.75063936E+00 0.69506927E+01 0.15500000E+01 0.0000E+00 0.9000E+01
#aMCatNLO 2  0  0  1  2 0.67339564E+01 0.00000000E+00  9  5  0 0.00000000E+00 0.00000000E+00 0.00000000E+00 0.00000000E+00 0.00000000E+00
  <rwgt>
   <wgt id='1001'> 0.15479E+04 </wgt>
   <wgt id='1002'> 0.13737E+04 </wgt>
   <wgt id='1003'> 0.17743E+04 </wgt>
   <wgt id='1004'> 0.18353E+04 </wgt>
   <wgt id='1005'> 0.16288E+04 </wgt>
   <wgt id='1006'> 0.21039E+04 </wgt>
   <wgt id='1007'> 0.12096E+04 </wgt>
   <wgt id='1008'> 0.10735E+04 </wgt>
   <wgt id='1009'> 0.13866E+04 </wgt>
  </rwgt>
  </event>
  <event>
  6      0 0.15478455E+04 0.45297140E+02 0.75467711E-02 0.12364905E+00
        1 -1    0    0  501    0 0.00000000E+00 0.00000000E+00 0.57107924E+03 0.57107933E+03 0.32000000E+00 0.0000E+00 0.9000E+01
       21 -1    0    0  502  501 0.00000000E+00 0.00000000E+00 -.91596831E+01 0.91903370E+01 0.75000000E+00 0.0000E+00 0.9000E+01
       23  2    1    2    0    0 -.32615336E+02 -.17342053E+02 0.48597247E+03 0.49581513E+03 0.91098245E+02 0.0000E+00 0.0000E+00
      -11  1    3    3    0    0 0.25315834E+02 -.29237605E+02 0.16851905E+03 0.17289997E+03 0.51099893E-03 0.0000E+00 0.9000E+01
       11  1    3    3    0    0 -.57931170E+02 0.11895552E+02 0.31745343E+03 0.32291516E+03 0.51099893E-03 0.0000E+00 0.9000E+01
        1  1    1    2  502    0 0.32615336E+02 0.17342053E+02 0.75947079E+02 0.84454533E+02 0.32000000E+00 0.0000E+00 0.9000E+01
#aMCatNLO 2  0  0  2  1 0.36939234E+02 0.00000000E+00  9  5  0 0.00000000E+00 0.00000000E+00 0.00000000E+00 0.00000000E+00 0.00000000E+00
  <rwgt>
   <wgt id='1001'> 0.15478E+04 </wgt>
   <wgt id='1002'> 0.13951E+04 </wgt>
   <wgt id='1003'> 0.17393E+04 </wgt>
   <wgt id='1004'> 0.16082E+04 </wgt>
   <wgt id='1005'> 0.14495E+04 </wgt>
   <wgt id='1006'> 0.18072E+04 </wgt>
   <wgt id='1007'> 0.14590E+04 </wgt>
   <wgt id='1008'> 0.13150E+04 </wgt>
   <wgt id='1009'> 0.16394E+04 </wgt>
  </rwgt>
  </event>
  <event>
  6      0 0.15478455E+04 0.30000000E+02 0.75467711E-02 0.12369219E+00
       21 -1    0    0  501  502 0.00000000E+00 0.00000000E+00 0.49143973E+02 0.49149696E+02 0.75000000E+00 0.0000E+00 0.9000E+01
       -3 -1    0    0    0  501 0.00000000E+00 0.00000000E+00 -.53549108E+03 0.53549131E+03 0.50000000E+00 0.0000E+00 0.9000E+01
       23  2    1    2    0    0 -.49396553E+02 0.43430604E+02 -.50399406E+03 0.51653887E+03 0.92066047E+02 0.0000E+00 0.0000E+00
      -11  1    3    3    0    0 -.51238380E+02 0.42712287E+02 -.17116621E+03 0.18370515E+03 0.51099893E-03 0.0000E+00 0.9000E+01
       11  1    3    3    0    0 0.18418275E+01 0.71831774E+00 -.33282784E+03 0.33283371E+03 0.51099893E-03 0.0000E+00 0.9000E+01
       -3  1    1    2    0  502 0.49396553E+02 -.43430604E+02 0.17646949E+02 0.68102141E+02 0.50000000E+00 0.0000E+00 0.9000E+01
#aMCatNLO 2  0  0  1  2 0.65774135E+02 0.00000000E+00  9  5  0 0.00000000E+00 0.00000000E+00 0.00000000E+00 0.00000000E+00 0.00000000E+00
  <rwgt>
   <wgt id='1001'> 0.15478E+04 </wgt>
   <wgt id='1002'> 0.13950E+04 </wgt>
   <wgt id='1003'> 0.17394E+04 </wgt>
   <wgt id='1004'> 0.15085E+04 </wgt>
   <wgt id='1005'> 0.13596E+04 </wgt>
   <wgt id='1006'> 0.16952E+04 </wgt>
   <wgt id='1007'> 0.15723E+04 </wgt>
   <wgt id='1008'> 0.14171E+04 </wgt>
   <wgt id='1009'> 0.17669E+04 </wgt>
  </rwgt>
  </event>
  <event>
  4      0 0.15478455E+04 0.20457213E+02 0.75467711E-02 0.18659595E+00
       -2 -1    0    0    0  501 0.00000000E+00 0.00000000E+00 0.59360666E+02 0.59361528E+02 0.32000000E+00 0.0000E+00 0.9000E+01
        2 -1    0    0  501    0 0.00000000E+00 0.00000000E+00 -.60451421E+01 0.60536057E+01 0.32000000E+00 0.0000E+00 0.9000E+01
      -11  1    1    2    0    0 -.15016028E+01 -.61708191E+01 -.41585301E+01 0.75912576E+01 0.51099893E-03 0.0000E+00 0.9000E+01
       11  1    1    2    0    0 0.15016028E+01 0.61708191E+01 0.57474054E+02 0.57823877E+02 0.51099893E-03 0.0000E+00 0.9000E+01
#aMCatNLO 1  0  0  1  2 0.36027532E+01 0.00000000E+00  9  5  0 0.00000000E+00 0.00000000E+00 0.00000000E+00 0.00000000E+00 0.00000000E+00
  <rwgt>
   <wgt id='1001'> 0.15479E+04 </wgt>
   <wgt id='1002'> 0.14712E+04 </wgt>
   <wgt id='1003'> 0.15689E+04 </wgt>
   <wgt id='1004'> 0.17810E+04 </wgt>
   <wgt id='1005'> 0.17207E+04 </wgt>
   <wgt id='1006'> 0.17508E+04 </wgt>
   <wgt id='1007'> 0.13264E+04 </wgt>
   <wgt id='1008'> 0.12316E+04 </wgt>
   <wgt id='1009'> 0.14036E+04 </wgt>
  </rwgt>
  </event>
  <event>
  5      0 0.15478455E+04 0.20557128E+02 0.75467711E-02 0.14461058E+00
       -2 -1    0    0    0  501 0.00000000E+00 0.00000000E+00 0.18454712E+01 0.18730094E+01 0.32000000E+00 0.0000E+00 0.9000E+01
        2 -1    0    0  501    0 0.00000000E+00 0.00000000E+00 -.10989188E+04 0.10989189E+04 0.32000000E+00 0.0000E+00 0.9000E+01
       23  2    1    2    0    0 0.00000000E+00 0.00000000E+00 -.10970733E+04 0.11007919E+04 0.90403659E+02 0.0000E+00 0.0000E+00
      -11  1    3    3    0    0 0.26117060E+02 -.35602585E+01 -.99566612E+03 0.99601496E+03 0.51099893E-03 0.0000E+00 0.9000E+01
       11  1    3    3    0    0 -.26117060E+02 0.35602585E+01 -.10140723E+03 0.10477691E+03 0.51099893E-03 0.0000E+00 0.9000E+01
#aMCatNLO 1  0  0  1  2 0.14110532E+01 0.00000000E+00  9  5  0 0.00000000E+00 0.00000000E+00 0.00000000E+00 0.00000000E+00 0.00000000E+00
  <rwgt>
   <wgt id='1001'> 0.15479E+04 </wgt>
   <wgt id='1002'> 0.15061E+04 </wgt>
   <wgt id='1003'> 0.16014E+04 </wgt>
   <wgt id='1004'> 0.16761E+04 </wgt>
   <wgt id='1005'> 0.16324E+04 </wgt>
   <wgt id='1006'> 0.17320E+04 </wgt>
   <wgt id='1007'> 0.13791E+04 </wgt>
   <wgt id='1008'> 0.13411E+04 </wgt>
   <wgt id='1009'> 0.14277E+04 </wgt>
  </rwgt>
  </event>
  <event>
  5      0 0.15478455E+04 0.17222841E+02 0.75467711E-02 0.12527739E+00
       -1 -1    0    0    0  501 0.00000000E+00 0.00000000E+00 0.24597927E+01 0.24805201E+01 0.32000000E+00 0.0000E+00 0.9000E+01
        1 -1    0    0  501    0 0.00000000E+00 0.00000000E+00 -.94016813E+03 0.94016818E+03 0.32000000E+00 0.0000E+00 0.9000E+01
       23  2    1    2    0    0 0.00000000E+00 0.00000000E+00 -.93770834E+03 0.94264870E+03 0.96382853E+02 0.0000E+00 0.0000E+00
      -11  1    3    3    0    0 0.36812963E+02 -.24180166E+02 -.66014226E+03 0.66160991E+03 0.51099893E-03 0.0000E+00 0.9000E+01
       11  1    3    3    0    0 -.36812963E+02 0.24180166E+02 -.27756608E+03 0.28103879E+03 0.51099893E-03 0.0000E+00 0.9000E+01
#aMCatNLO 1  0  0  2  1 0.31468513E+02 0.00000000E+00  9  5  0 0.00000000E+00 0.00000000E+00 0.00000000E+00 0.00000000E+00 0.00000000E+00
  <rwgt>
   <wgt id='1001'> 0.15479E+04 </wgt>
   <wgt id='1002'> 0.14641E+04 </wgt>
   <wgt id='1003'> 0.16546E+04 </wgt>
   <wgt id='1004'> 0.20435E+04 </wgt>
   <wgt id='1005'> 0.19129E+04 </wgt>
   <wgt id='1006'> 0.22100E+04 </wgt>
   <wgt id='1007'> 0.10906E+04 </wgt>
   <wgt id='1008'> 0.10485E+04 </wgt>
   <wgt id='1009'> 0.11441E+04 </wgt>
  </rwgt>
  </event>
  <event>
  6      0 0.15478455E+04 0.44168270E+02 0.75467711E-02 0.12451073E+00
       -3 -1    0    0    0  501 0.00000000E+00 0.00000000E+00 0.13913551E+03 0.13913641E+03 0.50000000E+00 0.0000E+00 0.9000E+01
       21 -1    0    0  501  502 0.00000000E+00 0.00000000E+00 -.63537677E+02 0.63542104E+02 0.75000000E+00 0.0000E+00 0.9000E+01
       23  2    1    2    0    0 0.22686932E+01 -.34243414E+02 0.11471873E+03 0.15063572E+03 0.91394613E+02 0.0000E+00 0.0000E+00
      -11  1    3    3    0    0 0.37293763E+02 0.96440005E+01 0.65401711E+02 0.75902670E+02 0.51099893E-03 0.0000E+00 0.9000E+01
       11  1    3    3    0    0 -.35025070E+02 -.43887415E+02 0.49317017E+02 0.74733051E+02 0.51099893E-03 0.0000E+00 0.9000E+01
       -3  1    1    2    0  502 -.22686932E+01 0.34243414E+02 -.39120892E+02 0.52042796E+02 0.50000000E+00 0.0000E+00 0.9000E+01
#aMCatNLO 2  0  0  2  1 0.34318485E+02 0.00000000E+00  9  5  0 0.00000000E+00 0.00000000E+00 0.00000000E+00 0.00000000E+00 0.00000000E+00
  <rwgt>
   <wgt id='1001'> 0.15479E+04 </wgt>
   <wgt id='1002'> 0.13941E+04 </wgt>
   <wgt id='1003'> 0.17409E+04 </wgt>
   <wgt id='1004'> 0.15787E+04 </wgt>
   <wgt id='1005'> 0.14220E+04 </wgt>
   <wgt id='1006'> 0.17757E+04 </wgt>
   <wgt id='1007'> 0.14894E+04 </wgt>
   <wgt id='1008'> 0.13414E+04 </wgt>
   <wgt id='1009'> 0.16751E+04 </wgt>
  </rwgt>
  </event>
  <event>
  4      0 0.15478455E+04 0.30000000E+02 0.75467711E-02 0.10524166E+00
        4 -1    0    0  501    0 0.00000000E+00 0.00000000E+00 0.20451227E+02 0.20509880E+02 0.15500000E+01 0.0000E+00 0.9000E+01
       -4 -1    0    0    0  501 0.00000000E+00 0.00000000E+00 -.34441481E+02 0.34476342E+02 0.15500000E+01 0.0000E+00 0.9000E+01
      -11  1    1    2    0    0 -.23763308E+02 -.35015091E+01 0.47938929E+01 0.24493607E+02 0.51099893E-03 0.0000E+00 0.9000E+01
       11  1    1    2    0    0 0.23763308E+02 0.35015091E+01 -.18784147E+02 0.30492615E+02 0.51099893E-03 0.0000E+00 0.9000E+01
#aMCatNLO 1  0  0  1  1 0.20535561E+03 0.00000000E+00  9  5  0 0.00000000E+00 0.00000000E+00 0.00000000E+00 0.00000000E+00 0.00000000E+00
  <rwgt>
   <wgt id='1001'> 0.15478E+04 </wgt>
   <wgt id='1002'> 0.15383E+04 </wgt>
   <wgt id='1003'> 0.15604E+04 </wgt>
   <wgt id='1004'> 0.19999E+04 </wgt>
   <wgt id='1005'> 0.19950E+04 </wgt>
   <wgt id='1006'> 0.20063E+04 </wgt>
   <wgt id='1007'> 0.10847E+04 </wgt>
   <wgt id='1008'> 0.10721E+04 </wgt>
   <wgt id='1009'> 0.11013E+04 </wgt>
  </rwgt>
  </event>
  <event>
  6      0 0.15478455E+04 0.31557123E+02 0.75467711E-02 0.11415816E+00
       21 -1    0    0  502  501 0.00000000E+00 0.00000000E+00 0.33872058E+02 0.33880360E+02 0.75000000E+00 0.0000E+00 0.9000E+01
        2 -1    0    0  501    0 0.00000000E+00 0.00000000E+00 -.54599087E+03 0.54599096E+03 0.32000000E+00 0.0000E+00 0.9000E+01
       23  2    1    2    0    0 0.35849640E+02 -.10718287E+03 -.37569057E+03 0.40271001E+03 0.90876743E+02 0.0000E+00 0.0000E+00
      -11  1    3    3    0    0 0.72672042E+01 -.48259247E+01 -.17843632E+03 0.17864944E+03 0.51099893E-03 0.0000E+00 0.9000E+01
       11  1    3    3    0    0 0.28582436E+02 -.10235694E+03 -.19725425E+03 0.22406057E+03 0.51099893E-03 0.0000E+00 0.9000E+01
        2  1    1    2  502    0 -.35849640E+02 0.10718287E+03 -.13642824E+03 0.17716131E+03 0.32000000E+00 0.0000E+00 0.9000E+01
#aMCatNLO 2  0  0  1  2 0.11301931E+03 0.00000000E+00  9  5  0 0.00000000E+00 0.00000000E+00 0.00000000E+00 0.00000000E+00 0.00000000E+00
  <rwgt>
   <wgt id='1001'> 0.15479E+04 </wgt>
   <wgt id='1002'> 0.14111E+04 </wgt>
   <wgt id='1003'> 0.17221E+04 </wgt>
   <wgt id='1004'> 0.15414E+04 </wgt>
   <wgt id='1005'> 0.14052E+04 </wgt>
   <wgt id='1006'> 0.17150E+04 </wgt>
   <wgt id='1007'> 0.15397E+04 </wgt>
   <wgt id='1008'> 0.14037E+04 </wgt>
   <wgt id='1009'> 0.17131E+04 </wgt>
  </rwgt>
  </event>
  <event>
  5      0 0.15478455E+04 0.19608640E+02 0.75467711E-02 0.15155176E+00
       -2 -1    0    0    0  501 0.00000000E+00 0.00000000E+00 0.54416816E+02 0.54417757E+02 0.32000000E+00 0.0000E+00 0.9000E+01
        2 -1    0    0  501    0 0.00000000E+00 0.00000000E+00 -.34544033E+02 0.34545516E+02 0.32000000E+00 0.0000E+00 0.9000E+01
       23  2    1    2    0    0 0.00000000E+00 0.00000000E+00 0.19872782E+02 0.88963272E+02 0.86715260E+02 0.0000E+00 0.0000E+00
      -11  1    3    3    0    0 -.13586781E+01 -.31324947E+01 -.34407099E+02 0.34576104E+02 0.51099893E-03 0.0000E+00 0.9000E+01
       11  1    3    3    0    0 0.13586781E+01 0.31324947E+01 0.54279881E+02 0.54387168E+02 0.51099893E-03 0.0000E+00 0.9000E+01
#aMCatNLO 1  0  0  2  1 0.21002767E+02 0.00000000E+00  9  5  0 0.00000000E+00 0.00000000E+00 0.00000000E+00 0.00000000E+00 0.00000000E+00
  <rwgt>
   <wgt id='1001'> 0.15479E+04 </wgt>
   <wgt id='1002'> 0.15650E+04 </wgt>
   <wgt id='1003'> 0.14285E+04 </wgt>
   <wgt id='1004'> 0.15497E+04 </wgt>
   <wgt id='1005'> 0.16478E+04 </wgt>
   <wgt id='1006'> 0.12763E+04 </wgt>
   <wgt id='1007'> 0.14011E+04 </wgt>
   <wgt id='1008'> 0.13559E+04 </wgt>
   <wgt id='1009'> 0.14047E+04 </wgt>
  </rwgt>
  </event>
  <event>
  5      0 0.15478455E+04 0.19476414E+02 0.75467711E-02 0.16721385E+00
       -1 -1    0    0    0  501 0.00000000E+00 0.00000000E+00 0.45252887E+01 0.45365888E+01 0.32000000E+00 0.0000E+00 0.9000E+01
        1 -1    0    0  501    0 0.00000000E+00 0.00000000E+00 -.45253843E+03 0.45253854E+03 0.32000000E+00 0.0000E+00 0.9000E+01
       23  2    1    2    0    0 0.00000000E+00 0.00000000E+00 -.44801314E+03 0.45707513E+03 0.90564349E+02 0.0000E+00 0.0000E+00
      -11  1    3    3    0    0 0.46709211E+01 -.63978456E+01 -.44902004E+03 0.44908991E+03 0.51099893E-03 0.0000E+00 0.9000E+01
       11  1    3    3    0    0 -.46709211E+01 0.63978456E+01 0.10068992E+01 0.79852225E+01 0.51099893E-03 0.0000E+00 0.9000E+01
#aMCatNLO 1  0  0  1  2 0.10252484E+02 0.00000000E+00  9  5  0 0.00000000E+00 0.00000000E+00 0.00000000E+00 0.00000000E+00 0.00000000E+00
  <rwgt>
   <wgt id='1001'> 0.15479E+04 </wgt>
   <wgt id='1002'> 0.14800E+04 </wgt>
   <wgt id='1003'> 0.15869E+04 </wgt>
   <wgt id='1004'> 0.14633E+04 </wgt>
   <wgt id='1005'> 0.14334E+04 </wgt>
   <wgt id='1006'> 0.14387E+04 </wgt>
   <wgt id='1007'> 0.15494E+04 </wgt>
   <wgt id='1008'> 0.14510E+04 </wgt>
   <wgt id='1009'> 0.16433E+04 </wgt>
  </rwgt>
  </event>
  <event>
  4      0 0.15478455E+04 0.24020427E+02 0.75467711E-02 0.15529541E+00
        2 -1    0    0  501    0 0.00000000E+00 0.00000000E+00 0.22613134E+03 0.22613156E+03 0.32000000E+00 0.0000E+00 0.9000E+01
       -2 -1    0    0    0  501 0.00000000E+00 0.00000000E+00 -.20590194E+01 0.20837372E+01 0.32000000E+00 0.0000E+00 0.9000E+01
      -11  1    1    2    0    0 -.65980628E+01 0.16404925E+02 0.17784181E+03 0.17871867E+03 0.51099893E-03 0.0000E+00 0.9000E+01
       11  1    1    2    0    0 0.65980628E+01 -.16404925E+02 0.46230512E+02 0.49496628E+02 0.51099893E-03 0.0000E+00 0.9000E+01
#aMCatNLO 1  0  0  1  2 0.20718574E+01 0.00000000E+00  9  5  0 0.00000000E+00 0.00000000E+00 0.00000000E+00 0.00000000E+00 0.00000000E+00
  <rwgt>
   <wgt id='1001'> 0.15478E+04 </wgt>
   <wgt id='1002'> 0.14583E+04 </wgt>
   <wgt id='1003'> 0.16660E+04 </wgt>
   <wgt id='1004'> 0.21542E+04 </wgt>
   <wgt id='1005'> 0.20103E+04 </wgt>
   <wgt id='1006'> 0.23450E+04 </wgt>
   <wgt id='1007'> 0.10631E+04 </wgt>
   <wgt id='1008'> 0.10120E+04 </wgt>
   <wgt id='1009'> 0.11301E+04 </wgt>
  </rwgt>
  </event>
  <event>
  5      0 0.15478455E+04 0.30000000E+02 0.75467711E-02 0.12887480E+00
       -1 -1    0    0    0  501 0.00000000E+00 0.00000000E+00 0.65414755E+03 0.65414763E+03 0.32000000E+00 0.0000E+00 0.9000E+01
        1 -1    0    0  501    0 0.00000000E+00 0.00000000E+00 -.33931412E+01 0.34081971E+01 0.32000000E+00 0.0000E+00 0.9000E+01
       23  2    1    2    0    0 0.00000000E+00 0.00000000E+00 0.65075441E+03 0.65755582E+03 0.94331135E+02 0.0000E+00 0.0000E+00
      -11  1    3    3    0    0 -.25586314E+00 -.24270593E+02 0.60727911E+03 0.60776397E+03 0.51099893E-03 0.0000E+00 0.9000E+01
       11  1    3    3    0    0 0.25586314E+00 0.24270593E+02 0.43475298E+02 0.49791854E+02 0.51099893E-03 0.0000E+00 0.9000E+01
#aMCatNLO 1  0  0  2  2 0.48003811E+02 0.00000000E+00  9  5  0 0.00000000E+00 0.00000000E+00 0.00000000E+00 0.00000000E+00 0.00000000E+00
  <rwgt>
   <wgt id='1001'> 0.15479E+04 </wgt>
   <wgt id='1002'> 0.14600E+04 </wgt>
   <wgt id='1003'> 0.16634E+04 </wgt>
   <wgt id='1004'> 0.10037E+04 </wgt>
   <wgt id='1005'> 0.98747E+03 </wgt>
   <wgt id='1006'> 0.10252E+04 </wgt>
   <wgt id='1007'> 0.19670E+04 </wgt>
   <wgt id='1008'> 0.18202E+04 </wgt>
   <wgt id='1009'> 0.21599E+04 </wgt>
  </rwgt>
  </event>
  <event>
  6      0 0.15478455E+04 0.38500204E+02 0.75467711E-02 0.12587434E+00
       21 -1    0    0  502  501 0.00000000E+00 0.00000000E+00 0.90002618E+01 0.90314569E+01 0.75000000E+00 0.0000E+00 0.9000E+01
        1 -1    0    0  501    0 0.00000000E+00 0.00000000E+00 -.68627180E+03 0.68627187E+03 0.32000000E+00 0.0000E+00 0.9000E+01
       23  2    1    2    0    0 -.26729610E+01 0.36683496E+02 -.59768421E+03 0.60762740E+03 0.10311072E+03 0.0000E+00 0.0000E+00
      -11  1    3    3    0    0 0.27822761E+02 -.86213247E+01 -.43594200E+03 0.43691402E+03 0.51099893E-03 0.0000E+00 0.9000E+01
       11  1    3    3    0    0 -.30495722E+02 0.45304821E+02 -.16174220E+03 0.17071337E+03 0.51099893E-03 0.0000E+00 0.9000E+01
        1  1    1    2  502    0 0.26729610E+01 -.36683496E+02 -.79587332E+02 0.87675934E+02 0.32000000E+00 0.0000E+00 0.9000E+01
#aMCatNLO 2  0  0  1  2 0.36780751E+02 0.00000000E+00  9  5  0 0.00000000E+00 0.00000000E+00 0.00000000E+00 0.00000000E+00 0.00000000E+00
  <rwgt>
   <wgt id='1001'> 0.15479E+04 </wgt>
   <wgt id='1002'> 0.13925E+04 </wgt>
   <wgt id='1003'> 0.17434E+04 </wgt>
   <wgt id='1004'> 0.16006E+04 </wgt>
   <wgt id='1005'> 0.14400E+04 </wgt>
   <wgt id='1006'> 0.18028E+04 </wgt>
   <wgt id='1007'> 0.14654E+04 </wgt>
   <wgt id='1008'> 0.13183E+04 </wgt>
   <wgt id='1009'> 0.16505E+04 </wgt>
  </rwgt>
  </event>
  <event>
  5      0 0.15478455E+04 0.18362634E+02 0.75467711E-02 0.14593002E+00
       -1 -1    0    0    0  501 0.00000000E+00 0.00000000E+00 0.10252283E+02 0.10257276E+02 0.32000000E+00 0.0000E+00 0.9000E+01
        1 -1    0    0  501    0 0.00000000E+00 0.00000000E+00 -.19446239E+03 0.19446265E+03 0.32000000E+00 0.0000E+00 0.9000E+01
       23  2    1    2    0    0 0.00000000E+00 0.00000000E+00 -.18421011E+03 0.20471993E+03 0.89313414E+02 0.0000E+00 0.0000E+00
      -11  1    3    3    0    0 -.46610502E+01 0.22462255E+02 -.42841180E+01 0.23337351E+02 0.51099893E-03 0.0000E+00 0.9000E+01
       11  1    3    3    0    0 0.46610502E+01 -.22462255E+02 -.17992599E+03 0.18138258E+03 0.51099893E-03 0.0000E+00 0.9000E+01
#aMCatNLO 1  0  0  2  1 0.55780177E+01 0.00000000E+00  9  5  0 0.00000000E+00 0.00000000E+00 0.00000000E+00 0.00000000E+00 0.00000000E+00
  <rwgt>
   <wgt id='1001'> 0.15479E+04 </wgt>
   <wgt id='1002'> 0.15092E+04 </wgt>
   <wgt id='1003'> 0.15923E+04 </wgt>
   <wgt id='1004'> 0.19758E+04 </wgt>
   <wgt id='1005'> 0.19050E+04 </wgt>
   <wgt id='1006'> 0.20619E+04 </wgt>
   <wgt id='1007'> 0.12178E+04 </wgt>
   <wgt id='1008'> 0.11971E+04 </wgt>
   <wgt id='1009'> 0.12395E+04 </wgt>
  </rwgt>
  </event>
  <event>
  4      0 0.15478455E+04 0.30000000E+02 0.75467711E-02 0.12061629E+00
        1 -1    0    0  501    0 0.00000000E+00 0.00000000E+00 0.13395353E+03 0.13395391E+03 0.32000000E+00 0.0000E+00 0.9000E+01
       -1 -1    0    0    0  501 0.00000000E+00 0.00000000E+00 -.88430526E+01 0.88488406E+01 0.32000000E+00 0.0000E+00 0.9000E+01
      -11  1    1    2    0    0 -.78172233E+01 -.20802576E+02 0.11708473E+03 0.11917504E+03 0.51099893E-03 0.0000E+00 0.9000E+01
       11  1    1    2    0    0 0.78172233E+01 0.20802576E+02 0.80257468E+01 0.23627712E+02 0.51099893E-03 0.0000E+00 0.9000E+01
#aMCatNLO 1  0  0  1  1 0.73170401E+02 0.00000000E+00  9  5  0 0.00000000E+00 0.00000000E+00 0.00000000E+00 0.00000000E+00 0.00000000E+00
  <rwgt>
   <wgt id='1001'> 0.15478E+04 </wgt>
   <wgt id='1002'> 0.15137E+04 </wgt>
   <wgt id='1003'> 0.15929E+04 </wgt>
   <wgt id='1004'> 0.15185E+04 </wgt>
   <wgt id='1005'> 0.15109E+04 </wgt>
   <wgt id='1006'> 0.15287E+04 </wgt>
   <wgt id='1007'> 0.15225E+04 </wgt>
   <wgt id='1008'> 0.14660E+04 </wgt>
   <wgt id='1009'> 0.15973E+04 </wgt>
  </rwgt>
  </event>
  <event>
  5      0 0.15478455E+04 0.30000000E+02 0.75467711E-02 0.15392458E+00
       21 -1    0    0  502  501 0.00000000E+00 0.00000000E+00 0.30834372E+02 0.30843492E+02 0.75000000E+00 0.0000E+00 0.9000E+01
        2 -1    0    0  501    0 0.00000000E+00 0.00000000E+00 -.22137925E+02 0.22140238E+02 0.32000000E+00 0.0000E+00 0.9000E+01
      -11  1    1    2    0    0 0.13653732E+02 -.10996300E-01 0.28316995E+01 0.13944283E+02 0.51099893E-03 0.0000E+00 0.9000E+01
       11  1    1    2    0    0 -.14995524E+02 0.82892987E+01 0.17632094E+02 0.24585950E+02 0.51099893E-03 0.0000E+00 0.9000E+01
        2  1    1    2  502    0 0.13417920E+01 -.82783024E+01 -.11767347E+02 0.14453496E+02 0.32000000E+00 0.0000E+00 0.9000E+01
#aMCatNLO 2  0  0  1  2 0.83863399E+01 0.00000000E+00  9  5  0 0.00000000E+00 0.00000000E+00 0.00000000E+00 0.00000000E+00 0.00000000E+00
  <rwgt>
   <wgt id='1001'> 0.15479E+04 </wgt>
   <wgt id='1002'> 0.13605E+04 </wgt>
   <wgt id='1003'> 0.17974E+04 </wgt>
   <wgt id='1004'> 0.18136E+04 </wgt>
   <wgt id='1005'> 0.15941E+04 </wgt>
   <wgt id='1006'> 0.21060E+04 </wgt>
   <wgt id='1007'> 0.12423E+04 </wgt>
   <wgt id='1008'> 0.10919E+04 </wgt>
   <wgt id='1009'> 0.14426E+04 </wgt>
  </rwgt>
  </event>
  <event>
  5      0 0.15478455E+04 0.40828607E+02 0.75467711E-02 0.13221267E+00
        2 -1    0    0  501    0 0.00000000E+00 0.00000000E+00 0.11691964E+04 0.11691964E+04 0.32000000E+00 0.0000E+00 0.9000E+01
       -2 -1    0    0    0  501 0.00000000E+00 0.00000000E+00 -.17482349E+01 0.17772803E+01 0.32000000E+00 0.0000E+00 0.9000E+01
       23  2    1    2    0    0 0.00000000E+00 0.00000000E+00 0.11674481E+04 0.11709737E+04 0.90797821E+02 0.0000E+00 0.0000E+00
      -11  1    3    3    0    0 0.15526763E+02 0.41982729E+02 0.68145803E+03 0.68292655E+03 0.51099893E-03 0.0000E+00 0.9000E+01
       11  1    3    3    0    0 -.15526763E+02 -.41982729E+02 0.48599010E+03 0.48804714E+03 0.51099893E-03 0.0000E+00 0.9000E+01
#aMCatNLO 1  0  0  1  1 0.51152761E-01 0.00000000E+00  9  5  0 0.00000000E+00 0.00000000E+00 0.00000000E+00 0.00000000E+00 0.00000000E+00
  <rwgt>
   <wgt id='1001'> 0.15479E+04 </wgt>
   <wgt id='1002'> 0.14114E+04 </wgt>
   <wgt id='1003'> 0.17216E+04 </wgt>
   <wgt id='1004'> 0.18624E+04 </wgt>
   <wgt id='1005'> 0.16947E+04 </wgt>
   <wgt id='1006'> 0.20759E+04 </wgt>
   <wgt id='1007'> 0.12431E+04 </wgt>
   <wgt id='1008'> 0.11363E+04 </wgt>
   <wgt id='1009'> 0.13791E+04 </wgt>
  </rwgt>
  </event>
  <event>
  6      0 0.15478455E+04 0.45297034E+02 0.75467711E-02 0.12818331E+00
        2 -1    0    0  502    0 0.00000000E+00 0.00000000E+00 0.17892719E+04 0.17892720E+04 0.32000000E+00 0.0000E+00 0.9000E+01
       -2 -1    0    0    0  501 0.00000000E+00 0.00000000E+00 -.17254020E+01 0.17548253E+01 0.32000000E+00 0.0000E+00 0.9000E+01
       23  2    1    2    0    0 0.15036255E+02 0.51999782E+01 0.15827092E+04 0.15855711E+04 0.93884479E+02 0.0000E+00 0.0000E+00
      -11  1    3    3    0    0 0.52271452E+02 0.12954323E+02 0.71308881E+03 0.71511941E+03 0.51099893E-03 0.0000E+00 0.9000E+01
       11  1    3    3    0    0 -.37235198E+02 -.77543451E+01 0.86962037E+03 0.87045170E+03 0.51099893E-03 0.0000E+00 0.9000E+01
       21  1    1    2  502  501 -.15036255E+02 -.51999782E+01 0.20483737E+03 0.20545569E+03 0.75000000E+00 0.0000E+00 0.9000E+01
#aMCatNLO 2  0  0  1  2 0.15910020E+02 0.00000000E+00  9  5  0 0.00000000E+00 0.00000000E+00 0.00000000E+00 0.00000000E+00 0.00000000E+00
  <rwgt>
   <wgt id='1001'> 0.15479E+04 </wgt>
   <wgt id='1002'> 0.13898E+04 </wgt>
   <wgt id='1003'> 0.17477E+04 </wgt>
   <wgt id='1004'> 0.15850E+04 </wgt>
   <wgt id='1005'> 0.14233E+04 </wgt>
   <wgt id='1006'> 0.17897E+04 </wgt>
   <wgt id='1007'> 0.14887E+04 </wgt>
   <wgt id='1008'> 0.13368E+04 </wgt>
   <wgt id='1009'> 0.16809E+04 </wgt>
  </rwgt>
  </event>
  <event>
  5      0 0.15478455E+04 0.26903242E+02 0.75467711E-02 0.13368780E+00
        2 -1    0    0  501    0 0.00000000E+00 0.00000000E+00 0.92832334E+03 0.92832340E+03 0.32000000E+00 0.0000E+00 0.9000E+01
       -2 -1    0    0    0  501 0.00000000E+00 0.00000000E+00 -.24101149E+01 0.24312659E+01 0.32000000E+00 0.0000E+00 0.9000E+01
       23  2    1    2    0    0 0.00000000E+00 0.00000000E+00 0.92591323E+03 0.93075467E+03 0.94810013E+02 0.0000E+00 0.0000E+00
      -11  1    3    3    0    0 -.13756343E+02 0.39300938E+02 0.68540195E+03 0.68666559E+03 0.51099893E-03 0.0000E+00 0.9000E+01
       11  1    3    3    0    0 0.13756343E+02 -.39300938E+02 0.24051128E+03 0.24408907E+03 0.51099893E-03 0.0000E+00 0.9000E+01
#aMCatNLO 1  0  0  1  2 0.66281397E+00 0.00000000E+00  9  5  0 0.00000000E+00 0.00000000E+00 0.00000000E+00 0.00000000E+00 0.00000000E+00
  <rwgt>
   <wgt id='1001'> 0.15479E+04 </wgt>
   <wgt id='1002'> 0.14414E+04 </wgt>
   <wgt id='1003'> 0.16824E+04 </wgt>
   <wgt id='1004'> 0.19777E+04 </wgt>
   <wgt id='1005'> 0.18303E+04 </wgt>
   <wgt id='1006'> 0.21644E+04 </wgt>
   <wgt id='1007'> 0.11610E+04 </wgt>
   <wgt id='1008'> 0.10899E+04 </wgt>
   <wgt id='1009'> 0.12505E+04 </wgt>
  </rwgt>
  </event>
  <event>
  6      0 0.15478455E+04 0.30000000E+02 0.75467711E-02 0.13880162E+00
        1 -1    0    0  501    0 0.00000000E+00 0.00000000E+00 0.10305704E+03 0.10305754E+03 0.32000000E+00 0.0000E+00 0.9000E+01
       21 -1    0    0  502  501 0.00000000E+00 0.00000000E+00 -.26442242E+02 0.26452876E+02 0.75000000E+00 0.0000E+00 0.9000E+01
       23  2    1    2    0    0 -.79014776E+01 0.19944221E+01 0.68316013E+02 0.11787498E+03 0.95713228E+02 0.0000E+00 0.0000E+00
      -11  1    3    3    0    0 0.25838404E+02 0.98439432E+00 -.13644013E+02 0.29236130E+02 0.51099893E-03 0.0000E+00 0.9000E+01
       11  1    3    3    0    0 -.33739882E+02 0.10100278E+01 0.81960026E+02 0.88638850E+02 0.51099893E-03 0.0000E+00 0.9000E+01
        1  1    1    2  502    0 0.79014776E+01 -.19944221E+01 0.82987851E+01 0.11635433E+02 0.32000000E+00 0.0000E+00 0.9000E+01
#aMCatNLO 2  0  0  2  1 0.81492986E+01 0.00000000E+00  9  5  0 0.00000000E+00 0.00000000E+00 0.00000000E+00 0.00000000E+00 0.00000000E+00
  <rwgt>
   <wgt id='1001'> 0.15478E+04 </wgt>
   <wgt id='1002'> 0.13776E+04 </wgt>
   <wgt id='1003'> 0.17677E+04 </wgt>
   <wgt id='1004'> 0.16811E+04 </wgt>
   <wgt id='1005'> 0.14963E+04 </wgt>
   <wgt id='1006'> 0.19200E+04 </wgt>
   <wgt id='1007'> 0.13754E+04 </wgt>
   <wgt id='1008'> 0.12241E+04 </wgt>
   <wgt id='1009'> 0.15707E+04 </wgt>
  </rwgt>
  </event>
  <event>
  5      0 0.15478455E+04 0.30000000E+02 0.75467711E-02 0.11971210E+00
        1 -1    0    0  501    0 0.00000000E+00 0.00000000E+00 0.82675212E+03 0.82675218E+03 0.32000000E+00 0.0000E+00 0.9000E+01
       -1 -1    0    0    0  501 0.00000000E+00 0.00000000E+00 -.22651152E+01 0.22876073E+01 0.32000000E+00 0.0000E+00 0.9000E+01
       23  2    1    2    0    0 0.00000000E+00 0.00000000E+00 0.82448700E+03 0.82903978E+03 0.86764918E+02 0.0000E+00 0.0000E+00
      -11  1    3    3    0    0 -.13937493E+02 0.18268805E+02 0.76384128E+03 0.76418682E+03 0.51099893E-03 0.0000E+00 0.9000E+01
       11  1    3    3    0    0 0.13937493E+02 -.18268805E+02 0.60645724E+02 0.64852963E+02 0.51099893E-03 0.0000E+00 0.9000E+01
#aMCatNLO 1  0  0  2  2 0.82753071E+02 0.00000000E+00  9  5  0 0.00000000E+00 0.00000000E+00 0.00000000E+00 0.00000000E+00 0.00000000E+00
  <rwgt>
   <wgt id='1001'> 0.15478E+04 </wgt>
   <wgt id='1002'> 0.14601E+04 </wgt>
   <wgt id='1003'> 0.16636E+04 </wgt>
   <wgt id='1004'> 0.12386E+04 </wgt>
   <wgt id='1005'> 0.11967E+04 </wgt>
   <wgt id='1006'> 0.12939E+04 </wgt>
   <wgt id='1007'> 0.17823E+04 </wgt>
   <wgt id='1008'> 0.16555E+04 </wgt>
   <wgt id='1009'> 0.19494E+04 </wgt>
  </rwgt>
  </event>
  <event>
  4      0 0.15478455E+04 0.20809472E+02 0.75467711E-02 0.17475377E+00
        2 -1    0    0  501    0 0.00000000E+00 0.00000000E+00 0.27250695E+04 0.27250695E+04 0.32000000E+00 0.0000E+00 0.9000E+01
       -2 -1    0    0    0  501 0.00000000E+00 0.00000000E+00 -.34072976E-02 0.16867815E+00 0.16864373E+00 0.0000E+00 0.9000E+01
      -11  1    1    2    0    0 0.89832197E+01 -.16721087E+01 0.26907404E+03 0.26922915E+03 0.51099893E-03 0.0000E+00 0.9000E+01
       11  1    1    2    0    0 -.89832197E+01 0.16721087E+01 0.24559920E+04 0.24560090E+04 0.51099893E-03 0.0000E+00 0.9000E+01
#aMCatNLO 1  0  0  1  2 0.31778583E+01 0.00000000E+00  9  5  0 0.00000000E+00 0.00000000E+00 0.00000000E+00 0.00000000E+00 0.00000000E+00
  <rwgt>
   <wgt id='1001'> 0.15478E+04 </wgt>
   <wgt id='1002'> 0.14502E+04 </wgt>
   <wgt id='1003'> 0.16854E+04 </wgt>
   <wgt id='1004'> 0.26717E+04 </wgt>
   <wgt id='1005'> 0.24262E+04 </wgt>
   <wgt id='1006'> 0.30177E+04 </wgt>
   <wgt id='1007'> 0.56941E+03 </wgt>
   <wgt id='1008'> 0.59593E+03 </wgt>
   <wgt id='1009'> 0.53195E+03 </wgt>
  </rwgt>
  </event>
  <event>
  5      0 -.15478455E+04 0.25615810E+02 0.75467711E-02 0.13360455E+00
        2 -1    0    0  501    0 0.00000000E+00 0.00000000E+00 0.10315210E+04 0.10315211E+04 0.32000000E+00 0.0000E+00 0.9000E+01
       -2 -1    0    0    0  501 0.00000000E+00 0.00000000E+00 -.20030235E+01 0.20284238E+01 0.32000000E+00 0.0000E+00 0.9000E+01
       23  2    1    2    0    0 0.00000000E+00 0.00000000E+00 0.10295180E+04 0.10335495E+04 0.91198961E+02 0.0000E+00 0.0000E+00
      -11  1    3    3    0    0 -.26895832E+02 -.31237790E+02 0.73571508E+03 0.73686896E+03 0.51099893E-03 0.0000E+00 0.9000E+01
       11  1    3    3    0    0 0.26895832E+02 0.31237790E+02 0.29380293E+03 0.29668055E+03 0.51099893E-03 0.0000E+00 0.9000E+01
#aMCatNLO 1  0  0  2  1 0.17865809E+01 0.00000000E+00  9  5  0 0.00000000E+00 0.00000000E+00 0.00000000E+00 0.00000000E+00 0.00000000E+00
  <rwgt>
   <wgt id='1001'> -.15479E+04 </wgt>
   <wgt id='1002'> -.11870E+04 </wgt>
   <wgt id='1003'> -.20130E+04 </wgt>
   <wgt id='1004'> -.28100E+04 </wgt>
   <wgt id='1005'> -.22988E+04 </wgt>
   <wgt id='1006'> -.34679E+04 </wgt>
   <wgt id='1007'> -.39596E+03 </wgt>
   <wgt id='1008'> -.17697E+03 </wgt>
   <wgt id='1009'> -.67930E+03 </wgt>
  </rwgt>
  </event>
  <event>
  5      0 0.15478455E+04 0.30656116E+02 0.75467711E-02 0.12816774E+00
        2 -1    0    0  501    0 0.00000000E+00 0.00000000E+00 0.85643072E+03 0.85643078E+03 0.32000000E+00 0.0000E+00 0.9000E+01
       21 -1    0    0  502  501 0.00000000E+00 0.00000000E+00 -.10717608E+02 0.10743818E+02 0.75000000E+00 0.0000E+00 0.9000E+01
      -11  1    1    2    0    0 0.47264314E+01 0.28801394E+02 0.48426914E+02 0.56542245E+02 0.51099893E-03 0.0000E+00 0.9000E+01
       11  1    1    2    0    0 0.32196017E+02 -.26493740E+02 0.74720909E+03 0.74837152E+03 0.51099893E-03 0.0000E+00 0.9000E+01
        2  1    1    2  502    0 -.36922448E+02 -.23076535E+01 0.50077101E+02 0.62260829E+02 0.32000000E+00 0.0000E+00 0.9000E+01
#aMCatNLO 2  0  0  2  1 0.36994492E+02 0.00000000E+00  9  5  0 0.00000000E+00 0.00000000E+00 0.00000000E+00 0.00000000E+00 0.00000000E+00
  <rwgt>
   <wgt id='1001'> 0.15478E+04 </wgt>
   <wgt id='1002'> 0.13898E+04 </wgt>
   <wgt id='1003'> 0.17476E+04 </wgt>
   <wgt id='1004'> 0.15959E+04 </wgt>
   <wgt id='1005'> 0.14330E+04 </wgt>
   <wgt id='1006'> 0.18019E+04 </wgt>
   <wgt id='1007'> 0.14688E+04 </wgt>
   <wgt id='1008'> 0.13190E+04 </wgt>
   <wgt id='1009'> 0.16584E+04 </wgt>
  </rwgt>
  </event>
  <event>
  5      0 0.15478455E+04 0.44664651E+02 0.75467711E-02 0.12812205E+00
        2 -1    0    0  501    0 0.00000000E+00 0.00000000E+00 0.89414771E+02 0.89415343E+02 0.32000000E+00 0.0000E+00 0.9000E+01
       -2 -1    0    0    0  501 0.00000000E+00 0.00000000E+00 -.22978078E+02 0.22980306E+02 0.32000000E+00 0.0000E+00 0.9000E+01
       23  2    1    2    0    0 0.00000000E+00 0.00000000E+00 0.66436693E+02 0.11239565E+03 0.90658412E+02 0.0000E+00 0.0000E+00
      -11  1    3    3    0    0 0.32810152E+02 -.30305527E+02 0.42806024E+02 0.61865068E+02 0.51099893E-03 0.0000E+00 0.9000E+01
       11  1    3    3    0    0 -.32810152E+02 0.30305527E+02 0.23630670E+02 0.50530581E+02 0.51099893E-03 0.0000E+00 0.9000E+01
#aMCatNLO 1  0  0  2  1 0.17159997E+02 0.00000000E+00  9  5  0 0.00000000E+00 0.00000000E+00 0.00000000E+00 0.00000000E+00 0.00000000E+00
  <rwgt>
   <wgt id='1001'> 0.15479E+04 </wgt>
   <wgt id='1002'> 0.15958E+04 </wgt>
   <wgt id='1003'> 0.14867E+04 </wgt>
   <wgt id='1004'> 0.16848E+04 </wgt>
   <wgt id='1005'> 0.17397E+04 </wgt>
   <wgt id='1006'> 0.16149E+04 </wgt>
   <wgt id='1007'> 0.13840E+04 </wgt>
   <wgt id='1008'> 0.14248E+04 </wgt>
   <wgt id='1009'> 0.13321E+04 </wgt>
  </rwgt>
  </event>
  <event>
  5      0 0.15478455E+04 0.31168664E+02 0.75467711E-02 0.13035874E+00
        1 -1    0    0  501    0 0.00000000E+00 0.00000000E+00 0.76708502E+03 0.76708508E+03 0.32000000E+00 0.0000E+00 0.9000E+01
       -1 -1    0    0    0  501 0.00000000E+00 0.00000000E+00 -.28404880E+01 0.28584562E+01 0.32000000E+00 0.0000E+00 0.9000E+01
       23  2    1    2    0    0 0.00000000E+00 0.00000000E+00 0.76424453E+03 0.76994354E+03 0.93505906E+02 0.0000E+00 0.0000E+00
      -11  1    3    3    0    0 -.27028580E+02 -.15522289E+02 0.66906307E+03 0.66978868E+03 0.51099893E-03 0.0000E+00 0.9000E+01
       11  1    3    3    0    0 0.27028580E+02 0.15522289E+02 0.95181459E+02 0.10015486E+03 0.51099893E-03 0.0000E+00 0.9000E+01
#aMCatNLO 1  0  0  2  2 0.28851597E+02 0.00000000E+00  9  5  0 0.00000000E+00 0.00000000E+00 0.00000000E+00 0.00000000E+00 0.00000000E+00
  <rwgt>
   <wgt id='1001'> 0.15478E+04 </wgt>
   <wgt id='1002'> 0.15454E+04 </wgt>
   <wgt id='1003'> 0.15510E+04 </wgt>
   <wgt id='1004'> 0.16669E+04 </wgt>
   <wgt id='1005'> 0.16660E+04 </wgt>
   <wgt id='1006'> 0.16681E+04 </wgt>
   <wgt id='1007'> 0.13987E+04 </wgt>
   <wgt id='1008'> 0.13951E+04 </wgt>
   <wgt id='1009'> 0.14034E+04 </wgt>
  </rwgt>
  </event>
  <event>
  5      0 0.15478455E+04 0.22675580E+02 0.75467711E-02 0.15853094E+00
        1 -1    0    0  501    0 0.00000000E+00 0.00000000E+00 0.66639852E+02 0.66640620E+02 0.32000000E+00 0.0000E+00 0.9000E+01
       -1 -1    0    0    0  501 0.00000000E+00 0.00000000E+00 -.31299109E+02 0.31300744E+02 0.32000000E+00 0.0000E+00 0.9000E+01
       23  2    1    2    0    0 0.00000000E+00 0.00000000E+00 0.35340743E+02 0.97941365E+02 0.91342995E+02 0.0000E+00 0.0000E+00
      -11  1    3    3    0    0 -.53985011E+01 -.50730034E+01 -.30651813E+02 0.31534312E+02 0.51099893E-03 0.0000E+00 0.9000E+01
       11  1    3    3    0    0 0.53985011E+01 0.50730034E+01 0.65992556E+02 0.66407053E+02 0.51099893E-03 0.0000E+00 0.9000E+01
#aMCatNLO 1  0  0  2  1 0.14367807E+02 0.00000000E+00  9  5  0 0.00000000E+00 0.00000000E+00 0.00000000E+00 0.00000000E+00 0.00000000E+00
  <rwgt>
   <wgt id='1001'> 0.15478E+04 </wgt>
   <wgt id='1002'> 0.14424E+04 </wgt>
   <wgt id='1003'> 0.16824E+04 </wgt>
   <wgt id='1004'> 0.16506E+04 </wgt>
   <wgt id='1005'> 0.15554E+04 </wgt>
   <wgt id='1006'> 0.17669E+04 </wgt>
   <wgt id='1007'> 0.13710E+04 </wgt>
   <wgt id='1008'> 0.12628E+04 </wgt>
   <wgt id='1009'> 0.15135E+04 </wgt>
  </rwgt>
  </event>
  <event>
  5      0 0.15478455E+04 0.38106567E+02 0.75467711E-02 0.13150002E+00
        3 -1    0    0  501    0 0.00000000E+00 0.00000000E+00 0.10814453E+03 0.10814569E+03 0.50000000E+00 0.0000E+00 0.9000E+01
       -3 -1    0    0    0  501 0.00000000E+00 0.00000000E+00 -.19129719E+02 0.19136253E+02 0.50000000E+00 0.0000E+00 0.9000E+01
       23  2    1    2    0    0 0.00000000E+00 0.00000000E+00 0.89014815E+02 0.12728194E+03 0.90978326E+02 0.0000E+00 0.0000E+00
      -11  1    3    3    0    0 -.24396739E+01 -.38028390E+02 0.97517556E+01 0.39334555E+02 0.51099893E-03 0.0000E+00 0.9000E+01
       11  1    3    3    0    0 0.24396739E+01 0.38028390E+02 0.79263060E+02 0.87947388E+02 0.51099893E-03 0.0000E+00 0.9000E+01
#aMCatNLO 1  0  0  2  1 0.14967388E+02 0.00000000E+00  9  5  0 0.00000000E+00 0.00000000E+00 0.00000000E+00 0.00000000E+00 0.00000000E+00
  <rwgt>
   <wgt id='1001'> 0.15478E+04 </wgt>
   <wgt id='1002'> 0.16004E+04 </wgt>
   <wgt id='1003'> 0.14803E+04 </wgt>
   <wgt id='1004'> 0.17356E+04 </wgt>
   <wgt id='1005'> 0.17975E+04 </wgt>
   <wgt id='1006'> 0.16559E+04 </wgt>
   <wgt id='1007'> 0.13248E+04 </wgt>
   <wgt id='1008'> 0.13676E+04 </wgt>
   <wgt id='1009'> 0.12699E+04 </wgt>
  </rwgt>
  </event>
  <event>
  5      0 0.15478455E+04 0.36813726E+02 0.75467711E-02 0.12628668E+00
        2 -1    0    0  501    0 0.00000000E+00 0.00000000E+00 0.87294245E+03 0.87294250E+03 0.32000000E+00 0.0000E+00 0.9000E+01
       -2 -1    0    0    0  501 0.00000000E+00 0.00000000E+00 -.24422878E+01 0.24631625E+01 0.32000000E+00 0.0000E+00 0.9000E+01
       23  2    1    2    0    0 0.00000000E+00 0.00000000E+00 0.87050016E+03 0.87540567E+03 0.92544889E+02 0.0000E+00 0.0000E+00
      -11  1    3    3    0    0 0.40801989E+02 -.21777119E+02 0.42156216E+03 0.42409162E+03 0.51099893E-03 0.0000E+00 0.9000E+01
       11  1    3    3    0    0 -.40801989E+02 0.21777119E+02 0.44893800E+03 0.45131405E+03 0.51099893E-03 0.0000E+00 0.9000E+01
#aMCatNLO 1  0  0  2  1 0.22833051E+02 0.00000000E+00  9  5  0 0.00000000E+00 0.00000000E+00 0.00000000E+00 0.00000000E+00 0.00000000E+00
  <rwgt>
   <wgt id='1001'> 0.15479E+04 </wgt>
   <wgt id='1002'> 0.15082E+04 </wgt>
   <wgt id='1003'> 0.15974E+04 </wgt>
   <wgt id='1004'> 0.15065E+04 </wgt>
   <wgt id='1005'> 0.14815E+04 </wgt>
   <wgt id='1006'> 0.15374E+04 </wgt>
   <wgt id='1007'> 0.15569E+04 </wgt>
   <wgt id='1008'> 0.15042E+04 </wgt>
   <wgt id='1009'> 0.16231E+04 </wgt>
  </rwgt>
  </event>
  <event>
  6      0 0.15478455E+04 0.44799460E+02 0.75467711E-02 0.11865397E+00
       21 -1    0    0  502  501 0.00000000E+00 0.00000000E+00 0.29981309E+02 0.29990688E+02 0.75000000E+00 0.0000E+00 0.9000E+01
        4 -1    0    0  501    0 0.00000000E+00 0.00000000E+00 -.61260797E+03 0.61260993E+03 0.15500000E+01 0.0000E+00 0.9000E+01
       23  2    1    2    0    0 0.50412822E+02 -.41730380E+02 -.56317330E+03 0.57430923E+03 0.91564489E+02 0.0000E+00 0.0000E+00
      -11  1    3    3    0    0 -.25680937E+02 -.62712062E+01 -.92307098E+02 0.96017910E+02 0.51099893E-03 0.0000E+00 0.9000E+01
       11  1    3    3    0    0 0.76093759E+02 -.35459174E+02 -.47086620E+03 0.47829132E+03 0.51099893E-03 0.0000E+00 0.9000E+01
        4  1    1    2  502    0 -.50412822E+02 0.41730380E+02 -.19453362E+02 0.68291383E+02 0.15500000E+01 0.0000E+00 0.9000E+01
#aMCatNLO 2  0  0  1  1 0.65443695E+02 0.00000000E+00  9  5  0 0.00000000E+00 0.00000000E+00 0.00000000E+00 0.00000000E+00 0.00000000E+00
  <rwgt>
   <wgt id='1001'> 0.15479E+04 </wgt>
   <wgt id='1002'> 0.14011E+04 </wgt>
   <wgt id='1003'> 0.17302E+04 </wgt>
   <wgt id='1004'> 0.15987E+04 </wgt>
   <wgt id='1005'> 0.14471E+04 </wgt>
   <wgt id='1006'> 0.17870E+04 </wgt>
   <wgt id='1007'> 0.14617E+04 </wgt>
   <wgt id='1008'> 0.13231E+04 </wgt>
   <wgt id='1009'> 0.16339E+04 </wgt>
  </rwgt>
  </event>
  <event>
  6      0 -.15478455E+04 0.30000000E+02 0.75467711E-02 0.14260243E+00
       -2 -1    0    0    0  502 0.00000000E+00 0.00000000E+00 0.13367585E+01 0.13745265E+01 0.32000000E+00 0.0000E+00 0.9000E+01
        2 -1    0    0  501    0 0.00000000E+00 0.00000000E+00 -.25402790E+04 0.25402790E+04 0.32000000E+00 0.0000E+00 0.9000E+01
       23  2    1    2    0    0 0.13204432E+02 -.34712208E+01 -.24051994E+04 0.24072135E+04 0.97501010E+02 0.0000E+00 0.0000E+00
      -11  1    3    3    0    0 0.99299717E+01 0.19310651E+02 -.12325771E+03 0.12515578E+03 0.51099893E-03 0.0000E+00 0.9000E+01
       11  1    3    3    0    0 0.32744603E+01 -.22781872E+02 -.22819417E+04 0.22820577E+04 0.51099893E-03 0.0000E+00 0.9000E+01
       21  1    1    2  501  502 -.13204432E+02 0.34712208E+01 -.13374287E+03 0.13444004E+03 0.75000000E+00 0.0000E+00 0.9000E+01
#aMCatNLO 2  0  0  1  2 0.13653073E+02 0.00000000E+00  9  5  0 0.00000000E+00 0.00000000E+00 0.00000000E+00 0.00000000E+00 0.00000000E+00
  <rwgt>
   <wgt id='1001'> -.15479E+04 </wgt>
   <wgt id='1002'> -.13733E+04 </wgt>
   <wgt id='1003'> -.17750E+04 </wgt>
   <wgt id='1004'> -.15817E+04 </wgt>
   <wgt id='1005'> -.14033E+04 </wgt>
   <wgt id='1006'> -.18139E+04 </wgt>
   <wgt id='1007'> -.14846E+04 </wgt>
   <wgt id='1008'> -.13172E+04 </wgt>
   <wgt id='1009'> -.17026E+04 </wgt>
  </rwgt>
  </event>
  <event>
  5      0 0.15478455E+04 0.43759056E+02 0.75467711E-02 0.11944795E+00
        3 -1    0    0  501    0 0.00000000E+00 0.00000000E+00 0.64647963E+01 0.64841030E+01 0.50000000E+00 0.0000E+00 0.9000E+01
       -3 -1    0    0    0  501 0.00000000E+00 0.00000000E+00 -.32498729E+03 0.32498767E+03 0.50000000E+00 0.0000E+00 0.9000E+01
       23  2    1    2    0    0 0.00000000E+00 0.00000000E+00 -.31852249E+03 0.33147177E+03 0.91743993E+02 0.0000E+00 0.0000E+00
      -11  1    3    3    0    0 0.43145084E+02 -.73045650E+01 -.20898247E+03 0.21351470E+03 0.51099893E-03 0.0000E+00 0.9000E+01
       11  1    3    3    0    0 -.43145084E+02 0.73045650E+01 -.10954002E+03 0.11795707E+03 0.51099893E-03 0.0000E+00 0.9000E+01
#aMCatNLO 1  0  0  2  1 0.61963228E+02 0.00000000E+00  9  5  0 0.00000000E+00 0.00000000E+00 0.00000000E+00 0.00000000E+00 0.00000000E+00
  <rwgt>
   <wgt id='1001'> 0.15478E+04 </wgt>
   <wgt id='1002'> 0.15485E+04 </wgt>
   <wgt id='1003'> 0.15470E+04 </wgt>
   <wgt id='1004'> 0.17021E+04 </wgt>
   <wgt id='1005'> 0.17045E+04 </wgt>
   <wgt id='1006'> 0.16992E+04 </wgt>
   <wgt id='1007'> 0.13609E+04 </wgt>
   <wgt id='1008'> 0.13602E+04 </wgt>
   <wgt id='1009'> 0.13618E+04 </wgt>
  </rwgt>
  </event>
  <event>
  6      0 0.15478455E+04 0.30000000E+02 0.75467711E-02 0.13529108E+00
       21 -1    0    0  502  501 0.00000000E+00 0.00000000E+00 0.11410479E+02 0.11435100E+02 0.75000000E+00 0.0000E+00 0.9000E+01
        1 -1    0    0  501    0 0.00000000E+00 0.00000000E+00 -.36150362E+03 0.36150377E+03 0.32000000E+00 0.0000E+00 0.9000E+01
       23  2    1    2    0    0 -.70432159E+01 -.29763776E+02 -.27469768E+03 0.29157507E+03 0.92853189E+02 0.0000E+00 0.0000E+00
      -11  1    3    3    0    0 -.21394873E+02 -.10747708E+02 -.26463049E+03 0.26571140E+03 0.51099893E-03 0.0000E+00 0.9000E+01
       11  1    3    3    0    0 0.14351657E+02 -.19016069E+02 -.10067197E+02 0.25863669E+02 0.51099893E-03 0.0000E+00 0.9000E+01
        1  1    1    2  502    0 0.70432159E+01 0.29763776E+02 -.75395464E+02 0.81363798E+02 0.32000000E+00 0.0000E+00 0.9000E+01
#aMCatNLO 2  0  0  1  1 0.30585769E+02 0.00000000E+00  9  5  0 0.00000000E+00 0.00000000E+00 0.00000000E+00 0.00000000E+00 0.00000000E+00
  <rwgt>
   <wgt id='1001'> 0.15479E+04 </wgt>
   <wgt id='1002'> 0.13817E+04 </wgt>
   <wgt id='1003'> 0.17610E+04 </wgt>
   <wgt id='1004'> 0.16538E+04 </wgt>
   <wgt id='1005'> 0.14761E+04 </wgt>
   <wgt id='1006'> 0.18814E+04 </wgt>
   <wgt id='1007'> 0.14046E+04 </wgt>
   <wgt id='1008'> 0.12538E+04 </wgt>
   <wgt id='1009'> 0.15981E+04 </wgt>
  </rwgt>
  </event>
  <event>
  6      0 0.15478455E+04 0.30000000E+02 0.75467711E-02 0.11821985E+00
       -2 -1    0    0    0  502 0.00000000E+00 0.00000000E+00 0.75937387E+01 0.76004781E+01 0.32000000E+00 0.0000E+00 0.9000E+01
        2 -1    0    0  501    0 0.00000000E+00 0.00000000E+00 -.15263398E+04 0.15263398E+04 0.32000000E+00 0.0000E+00 0.9000E+01
       23  2    1    2    0    0 -.60593477E+02 -.60225456E+02 -.10667679E+04 0.10739582E+04 0.89966095E+02 0.0000E+00 0.0000E+00
      -11  1    3    3    0    0 0.19231522E+01 -.20598711E+02 -.45168463E+02 0.49680937E+02 0.51099893E-03 0.0000E+00 0.9000E+01
       11  1    3    3    0    0 -.62516629E+02 -.39626744E+02 -.10215994E+04 0.10242773E+04 0.51099893E-03 0.0000E+00 0.9000E+01
       21  1    1    2  501  502 0.60593477E+02 0.60225456E+02 -.45197817E+03 0.45998207E+03 0.75000000E+00 0.0000E+00 0.9000E+01
#aMCatNLO 2  0  0  1  1 0.85432283E+02 0.00000000E+00  9  5  0 0.00000000E+00 0.00000000E+00 0.00000000E+00 0.00000000E+00 0.00000000E+00
  <rwgt>
   <wgt id='1001'> 0.15479E+04 </wgt>
   <wgt id='1002'> 0.14020E+04 </wgt>
   <wgt id='1003'> 0.17294E+04 </wgt>
   <wgt id='1004'> 0.15436E+04 </wgt>
   <wgt id='1005'> 0.13982E+04 </wgt>
   <wgt id='1006'> 0.17247E+04 </wgt>
   <wgt id='1007'> 0.15387E+04 </wgt>
   <wgt id='1008'> 0.13937E+04 </wgt>
   <wgt id='1009'> 0.17192E+04 </wgt>
  </rwgt>
  </event>
  <event>
  5      0 0.15478455E+04 0.45423494E+02 0.75467711E-02 0.11028379E+00
        1 -1    0    0  501    0 0.00000000E+00 0.00000000E+00 0.22804712E+03 0.22804734E+03 0.32000000E+00 0.0000E+00 0.9000E+01
       -1 -1    0    0    0  501 0.00000000E+00 0.00000000E+00 -.90474276E+01 0.90530849E+01 0.32000000E+00 0.0000E+00 0.9000E+01
       23  2    1    2    0    0 0.00000000E+00 0.00000000E+00 0.21899969E+03 0.23710042E+03 0.90861148E+02 0.0000E+00 0.0000E+00
      -11  1    3    3    0    0 -.33230556E+02 0.30968112E+02 0.10740690E+03 0.11661704E+03 0.51099893E-03 0.0000E+00 0.9000E+01
       11  1    3    3    0    0 0.33230556E+02 -.30968112E+02 0.11159279E+03 0.12048338E+03 0.51099893E-03 0.0000E+00 0.9000E+01
#aMCatNLO 1  0  0  2  1 0.13090638E+03 0.00000000E+00  9  5  0 0.00000000E+00 0.00000000E+00 0.00000000E+00 0.00000000E+00 0.00000000E+00
  <rwgt>
   <wgt id='1001'> 0.15478E+04 </wgt>
   <wgt id='1002'> 0.15446E+04 </wgt>
   <wgt id='1003'> 0.15520E+04 </wgt>
   <wgt id='1004'> 0.14591E+04 </wgt>
   <wgt id='1005'> 0.14807E+04 </wgt>
   <wgt id='1006'> 0.14316E+04 </wgt>
   <wgt id='1007'> 0.16282E+04 </wgt>
   <wgt id='1008'> 0.15986E+04 </wgt>
   <wgt id='1009'> 0.16658E+04 </wgt>
  </rwgt>
  </event>
  <event>
  6      0 0.15478455E+04 0.41733987E+02 0.75467711E-02 0.12604187E+00
       21 -1    0    0  501  502 0.00000000E+00 0.00000000E+00 0.80993871E+02 0.80997344E+02 0.75000000E+00 0.0000E+00 0.9000E+01
       -1 -1    0    0    0  501 0.00000000E+00 0.00000000E+00 -.50017222E+02 0.50018245E+02 0.32000000E+00 0.0000E+00 0.9000E+01
       23  2    1    2    0    0 -.16436281E+02 0.26347018E+02 0.23071128E+02 0.98970053E+02 0.91095981E+02 0.0000E+00 0.0000E+00
      -11  1    3    3    0    0 -.84377663E+01 -.30206365E+02 -.10064457E+02 0.32938028E+02 0.51099893E-03 0.0000E+00 0.9000E+01
       11  1    3    3    0    0 -.79985152E+01 0.56553383E+02 0.33135585E+02 0.66032025E+02 0.51099893E-03 0.0000E+00 0.9000E+01
       -1  1    1    2    0  502 0.16436281E+02 -.26347018E+02 0.79055219E+01 0.32045536E+02 0.32000000E+00 0.0000E+00 0.9000E+01
#aMCatNLO 2  0  0  1  1 0.31053449E+02 0.00000000E+00  9  5  0 0.00000000E+00 0.00000000E+00 0.00000000E+00 0.00000000E+00 0.00000000E+00
  <rwgt>
   <wgt id='1001'> 0.15478E+04 </wgt>
   <wgt id='1002'> 0.13923E+04 </wgt>
   <wgt id='1003'> 0.17438E+04 </wgt>
   <wgt id='1004'> 0.16071E+04 </wgt>
   <wgt id='1005'> 0.14456E+04 </wgt>
   <wgt id='1006'> 0.18105E+04 </wgt>
   <wgt id='1007'> 0.14602E+04 </wgt>
   <wgt id='1008'> 0.13135E+04 </wgt>
   <wgt id='1009'> 0.16450E+04 </wgt>
  </rwgt>
  </event>
  <event>
  4      0 0.15478455E+04 0.74632480E+02 0.75467711E-02 0.11448181E+00
       -2 -1    0    0    0  501 0.00000000E+00 0.00000000E+00 0.81441318E+01 0.81504161E+01 0.32000000E+00 0.0000E+00 0.9000E+01
        2 -1    0    0  501    0 0.00000000E+00 0.00000000E+00 -.12691520E+04 0.12691520E+04 0.32000000E+00 0.0000E+00 0.9000E+01
      -11  1    1    2    0    0 -.17913640E+02 0.72450732E+02 -.10642812E+04 0.10668948E+04 0.51099893E-03 0.0000E+00 0.9000E+01
       11  1    1    2    0    0 0.17913640E+02 -.72450732E+02 -.19672668E+03 0.21040769E+03 0.51099893E-03 0.0000E+00 0.9000E+01
#aMCatNLO 1  0  0  2  2 0.62369231E+02 0.00000000E+00  9  5  0 0.00000000E+00 0.00000000E+00 0.00000000E+00 0.00000000E+00 0.00000000E+00
  <rwgt>
   <wgt id='1001'> 0.15479E+04 </wgt>
   <wgt id='1002'> 0.15227E+04 </wgt>
   <wgt id='1003'> 0.15792E+04 </wgt>
   <wgt id='1004'> 0.22667E+04 </wgt>
   <wgt id='1005'> 0.21734E+04 </wgt>
   <wgt id='1006'> 0.23830E+04 </wgt>
   <wgt id='1007'> 0.85839E+03 </wgt>
   <wgt id='1008'> 0.89718E+03 </wgt>
   <wgt id='1009'> 0.80994E+03 </wgt>
  </rwgt>
  </event>
  <event>
  5      0 0.15478455E+04 0.44490542E+02 0.75467711E-02 0.13142451E+00
       -1 -1    0    0    0  501 0.00000000E+00 0.00000000E+00 0.76542898E+02 0.76543566E+02 0.32000000E+00 0.0000E+00 0.9000E+01
        1 -1    0    0  501    0 0.00000000E+00 0.00000000E+00 -.26182433E+02 0.26184388E+02 0.32000000E+00 0.0000E+00 0.9000E+01
       23  2    1    2    0    0 0.00000000E+00 0.00000000E+00 0.50360465E+02 0.10272795E+03 0.89536899E+02 0.0000E+00 0.0000E+00
      -11  1    3    3    0    0 -.15707627E+02 -.41625458E+02 0.30894527E+02 0.54165304E+02 0.51099893E-03 0.0000E+00 0.9000E+01
       11  1    3    3    0    0 0.15707627E+02 0.41625458E+02 0.19465938E+02 0.48562651E+02 0.51099893E-03 0.0000E+00 0.9000E+01
#aMCatNLO 1  0  0  2  1 0.37344802E+01 0.00000000E+00  9  5  0 0.00000000E+00 0.00000000E+00 0.00000000E+00 0.00000000E+00 0.00000000E+00
  <rwgt>
   <wgt id='1001'> 0.15479E+04 </wgt>
   <wgt id='1002'> 0.15165E+04 </wgt>
   <wgt id='1003'> 0.15876E+04 </wgt>
   <wgt id='1004'> 0.16862E+04 </wgt>
   <wgt id='1005'> 0.16541E+04 </wgt>
   <wgt id='1006'> 0.17270E+04 </wgt>
   <wgt id='1007'> 0.13788E+04 </wgt>
   <wgt id='1008'> 0.13493E+04 </wgt>
   <wgt id='1009'> 0.14161E+04 </wgt>
  </rwgt>
  </event>
  <event>
  5      0 0.15478455E+04 0.43032808E+02 0.75467711E-02 0.13083175E+00
        1 -1    0    0  501    0 0.00000000E+00 0.00000000E+00 0.85566229E+01 0.85626045E+01 0.32000000E+00 0.0000E+00 0.9000E+01
       -1 -1    0    0    0  501 0.00000000E+00 0.00000000E+00 -.26760871E+03 0.26760890E+03 0.32000000E+00 0.0000E+00 0.9000E+01
       23  2    1    2    0    0 0.00000000E+00 0.00000000E+00 -.25905208E+03 0.27617150E+03 0.95722080E+02 0.0000E+00 0.0000E+00
      -11  1    3    3    0    0 0.23375682E+02 0.36130320E+02 -.69085540E+02 0.81391857E+02 0.51099893E-03 0.0000E+00 0.9000E+01
       11  1    3    3    0    0 -.23375682E+02 -.36130320E+02 -.18996654E+03 0.19477965E+03 0.51099893E-03 0.0000E+00 0.9000E+01
#aMCatNLO 1  0  0  1  2 0.88277554E+01 0.00000000E+00  9  5  0 0.00000000E+00 0.00000000E+00 0.00000000E+00 0.00000000E+00 0.00000000E+00
  <rwgt>
   <wgt id='1001'> 0.15478E+04 </wgt>
   <wgt id='1002'> 0.16584E+04 </wgt>
   <wgt id='1003'> 0.14066E+04 </wgt>
   <wgt id='1004'> 0.16605E+04 </wgt>
   <wgt id='1005'> 0.17837E+04 </wgt>
   <wgt id='1006'> 0.15034E+04 </wgt>
   <wgt id='1007'> 0.14043E+04 </wgt>
   <wgt id='1008'> 0.15010E+04 </wgt>
   <wgt id='1009'> 0.12809E+04 </wgt>
  </rwgt>
  </event>
  <event>
  5      0 0.15478455E+04 0.30000000E+02 0.75467711E-02 0.15514302E+00
       -4 -1    0    0    0  501 0.00000000E+00 0.00000000E+00 0.48239273E+02 0.48264168E+02 0.15500000E+01 0.0000E+00 0.9000E+01
       21 -1    0    0  501  502 0.00000000E+00 0.00000000E+00 -.11397246E+02 0.11421896E+02 0.75000000E+00 0.0000E+00 0.9000E+01
      -11  1    1    2    0    0 -.14135173E+02 -.14317983E+01 0.13546987E+02 0.19630945E+02 0.51099893E-03 0.0000E+00 0.9000E+01
       11  1    1    2    0    0 0.11448548E+02 0.95463220E+01 -.30234599E+00 0.14909491E+02 0.51099893E-03 0.0000E+00 0.9000E+01
       -4  1    1    2    0  502 0.26866254E+01 -.81145237E+01 0.23597387E+02 0.25145628E+02 0.15500000E+01 0.0000E+00 0.9000E+01
#aMCatNLO 2  0  0  2  2 0.85477161E+01 0.00000000E+00  9  5  0 0.00000000E+00 0.00000000E+00 0.00000000E+00 0.00000000E+00 0.00000000E+00
  <rwgt>
   <wgt id='1001'> 0.15479E+04 </wgt>
   <wgt id='1002'> 0.13591E+04 </wgt>
   <wgt id='1003'> 0.17999E+04 </wgt>
   <wgt id='1004'> 0.20146E+04 </wgt>
   <wgt id='1005'> 0.17689E+04 </wgt>
   <wgt id='1006'> 0.23426E+04 </wgt>
   <wgt id='1007'> 0.10568E+04 </wgt>
   <wgt id='1008'> 0.92792E+03 </wgt>
   <wgt id='1009'> 0.12288E+04 </wgt>
  </rwgt>
  </event>
  <event>
  5      0 0.15478455E+04 0.44555543E+02 0.75467711E-02 0.11319645E+00
       -3 -1    0    0    0  501 0.00000000E+00 0.00000000E+00 0.16522765E+03 0.16522841E+03 0.50000000E+00 0.0000E+00 0.9000E+01
        3 -1    0    0  501    0 0.00000000E+00 0.00000000E+00 -.12441177E+02 0.12451220E+02 0.50000000E+00 0.0000E+00 0.9000E+01
       23  2    1    2    0    0 0.00000000E+00 0.00000000E+00 0.15278647E+03 0.17767963E+03 0.90699190E+02 0.0000E+00 0.0000E+00
      -11  1    3    3    0    0 -.44549690E+02 -.72215191E+00 0.92945257E+02 0.10307287E+03 0.51099893E-03 0.0000E+00 0.9000E+01
       11  1    3    3    0    0 0.44549690E+02 0.72215191E+00 0.59841215E+02 0.74606752E+02 0.51099893E-03 0.0000E+00 0.9000E+01
#aMCatNLO 1  0  0  2  1 0.10520779E+03 0.00000000E+00  9  5  0 0.00000000E+00 0.00000000E+00 0.00000000E+00 0.00000000E+00 0.00000000E+00
  <rwgt>
   <wgt id='1001'> 0.15479E+04 </wgt>
   <wgt id='1002'> 0.15522E+04 </wgt>
   <wgt id='1003'> 0.15424E+04 </wgt>
   <wgt id='1004'> 0.13308E+04 </wgt>
   <wgt id='1005'> 0.13783E+04 </wgt>
   <wgt id='1006'> 0.12702E+04 </wgt>
   <wgt id='1007'> 0.17385E+04 </wgt>
   <wgt id='1008'> 0.16992E+04 </wgt>
   <wgt id='1009'> 0.17884E+04 </wgt>
  </rwgt>
  </event>
  <event>
  5      0 0.15478455E+04 0.32746684E+02 0.75467711E-02 0.13464744E+00
        2 -1    0    0  502    0 0.00000000E+00 0.00000000E+00 0.93046605E+03 0.93046611E+03 0.32000000E+00 0.0000E+00 0.9000E+01
       -2 -1    0    0    0  501 0.00000000E+00 0.00000000E+00 -.24915398E+01 0.25120053E+01 0.32000000E+00 0.0000E+00 0.9000E+01
      -11  1    1    2    0    0 0.26645319E+02 0.12003416E+01 0.19590075E+03 0.19770816E+03 0.51099893E-03 0.0000E+00 0.9000E+01
       11  1    1    2    0    0 -.40223087E+02 0.90046191E-01 0.26860900E+03 0.27160394E+03 0.51099893E-03 0.0000E+00 0.9000E+01
       21  1    1    2  502  501 0.13577768E+02 -.12903878E+01 0.46346476E+03 0.46366601E+03 0.75000000E+00 0.0000E+00 0.9000E+01
#aMCatNLO 2  0  0  1  2 0.13638947E+02 0.00000000E+00  9  5  0 0.00000000E+00 0.00000000E+00 0.00000000E+00 0.00000000E+00 0.00000000E+00
  <rwgt>
   <wgt id='1001'> 0.15478E+04 </wgt>
   <wgt id='1002'> 0.13823E+04 </wgt>
   <wgt id='1003'> 0.17598E+04 </wgt>
   <wgt id='1004'> 0.16647E+04 </wgt>
   <wgt id='1005'> 0.14868E+04 </wgt>
   <wgt id='1006'> 0.18928E+04 </wgt>
   <wgt id='1007'> 0.14055E+04 </wgt>
   <wgt id='1008'> 0.12552E+04 </wgt>
   <wgt id='1009'> 0.15980E+04 </wgt>
  </rwgt>
  </event>
  <event>
  5      0 0.15478455E+04 0.23621972E+02 0.75467711E-02 0.13794986E+00
       -2 -1    0    0    0  501 0.00000000E+00 0.00000000E+00 0.20272556E+01 0.20523561E+01 0.32000000E+00 0.0000E+00 0.9000E+01
        2 -1    0    0  501    0 0.00000000E+00 0.00000000E+00 -.96444496E+03 0.96444501E+03 0.32000000E+00 0.0000E+00 0.9000E+01
       23  2    1    2    0    0 0.00000000E+00 0.00000000E+00 -.96241770E+03 0.96649737E+03 0.88709227E+02 0.0000E+00 0.0000E+00
      -11  1    3    3    0    0 -.81369311E+00 0.30972879E+02 -.13541110E+03 0.13891057E+03 0.51099893E-03 0.0000E+00 0.9000E+01
       11  1    3    3    0    0 0.81369311E+00 -.30972879E+02 -.82700660E+03 0.82758680E+03 0.51099893E-03 0.0000E+00 0.9000E+01
#aMCatNLO 1  0  0  2  1 0.78600462E+01 0.00000000E+00  9  5  0 0.00000000E+00 0.00000000E+00 0.00000000E+00 0.00000000E+00 0.00000000E+00
  <rwgt>
   <wgt id='1001'> 0.15479E+04 </wgt>
   <wgt id='1002'> 0.15427E+04 </wgt>
   <wgt id='1003'> 0.15524E+04 </wgt>
   <wgt id='1004'> 0.16441E+04 </wgt>
   <wgt id='1005'> 0.16442E+04 </wgt>
   <wgt id='1006'> 0.16415E+04 </wgt>
   <wgt id='1007'> 0.14219E+04 </wgt>
   <wgt id='1008'> 0.14117E+04 </wgt>
   <wgt id='1009'> 0.14331E+04 </wgt>
  </rwgt>
  </event>
  <event>
  5      0 0.15478455E+04 0.15386076E+02 0.75467711E-02 0.13594973E+00
        2 -1    0    0  501    0 0.00000000E+00 0.00000000E+00 0.25149801E+01 0.25352563E+01 0.32000000E+00 0.0000E+00 0.9000E+01
       -2 -1    0    0    0  501 0.00000000E+00 0.00000000E+00 -.71637454E+03 0.71637461E+03 0.32000000E+00 0.0000E+00 0.9000E+01
       23  2    1    2    0    0 0.00000000E+00 0.00000000E+00 -.71385956E+03 0.71890987E+03 0.85064251E+02 0.0000E+00 0.0000E+00
      -11  1    3    3    0    0 0.35456114E+02 -.72618679E+01 -.54574017E+03 0.54693894E+03 0.51099893E-03 0.0000E+00 0.9000E+01
       11  1    3    3    0    0 -.35456114E+02 0.72618679E+01 -.16811939E+03 0.17197093E+03 0.51099893E-03 0.0000E+00 0.9000E+01
#aMCatNLO 1  0  0  2  1 0.37289291E+01 0.00000000E+00  9  5  0 0.00000000E+00 0.00000000E+00 0.00000000E+00 0.00000000E+00 0.00000000E+00
  <rwgt>
   <wgt id='1001'> 0.15479E+04 </wgt>
   <wgt id='1002'> 0.14504E+04 </wgt>
   <wgt id='1003'> 0.16726E+04 </wgt>
   <wgt id='1004'> 0.19817E+04 </wgt>
   <wgt id='1005'> 0.18415E+04 </wgt>
   <wgt id='1006'> 0.21613E+04 </wgt>
   <wgt id='1007'> 0.11525E+04 </wgt>
   <wgt id='1008'> 0.10922E+04 </wgt>
   <wgt id='1009'> 0.12296E+04 </wgt>
  </rwgt>
  </event>
  <event>
  5      0 0.15478455E+04 0.19494973E+02 0.75467711E-02 0.13162596E+00
       -1 -1    0    0    0  501 0.00000000E+00 0.00000000E+00 0.56949384E+03 0.56949393E+03 0.32000000E+00 0.0000E+00 0.9000E+01
        1 -1    0    0  501    0 0.00000000E+00 0.00000000E+00 -.35808963E+01 0.35951660E+01 0.32000000E+00 0.0000E+00 0.9000E+01
       23  2    1    2    0    0 0.00000000E+00 0.00000000E+00 0.56591295E+03 0.57308910E+03 0.90408252E+02 0.0000E+00 0.0000E+00
      -11  1    3    3    0    0 0.63475796E+01 -.44753427E+02 0.28613848E+03 0.28968671E+03 0.51099893E-03 0.0000E+00 0.9000E+01
       11  1    3    3    0    0 -.63475796E+01 0.44753427E+02 0.27977447E+03 0.28340239E+03 0.51099893E-03 0.0000E+00 0.9000E+01
#aMCatNLO 1  0  0  1  2 0.15406797E+01 0.00000000E+00  9  5  0 0.00000000E+00 0.00000000E+00 0.00000000E+00 0.00000000E+00 0.00000000E+00
  <rwgt>
   <wgt id='1001'> 0.15479E+04 </wgt>
   <wgt id='1002'> 0.14734E+04 </wgt>
   <wgt id='1003'> 0.16408E+04 </wgt>
   <wgt id='1004'> 0.19640E+04 </wgt>
   <wgt id='1005'> 0.18524E+04 </wgt>
   <wgt id='1006'> 0.21042E+04 </wgt>
   <wgt id='1007'> 0.11846E+04 </wgt>
   <wgt id='1008'> 0.11405E+04 </wgt>
   <wgt id='1009'> 0.12393E+04 </wgt>
  </rwgt>
  </event>
  <event>
  5      0 0.15478455E+04 0.36480213E+02 0.75467711E-02 0.12917236E+00
       -2 -1    0    0    0  501 0.00000000E+00 0.00000000E+00 0.10188560E+02 0.10193584E+02 0.32000000E+00 0.0000E+00 0.9000E+01
        2 -1    0    0  501    0 0.00000000E+00 0.00000000E+00 -.19554630E+03 0.19554656E+03 0.32000000E+00 0.0000E+00 0.9000E+01
       23  2    1    2    0    0 0.00000000E+00 0.00000000E+00 -.18535774E+03 0.20574014E+03 0.89283346E+02 0.0000E+00 0.0000E+00
      -11  1    3    3    0    0 0.20104746E+02 0.30440189E+02 -.33386127E+02 0.49451384E+02 0.51099893E-03 0.0000E+00 0.9000E+01
       11  1    3    3    0    0 -.20104746E+02 -.30440189E+02 -.15197161E+03 0.15628876E+03 0.51099893E-03 0.0000E+00 0.9000E+01
#aMCatNLO 1  0  0  1  2 0.26628081E+02 0.00000000E+00  9  5  0 0.00000000E+00 0.00000000E+00 0.00000000E+00 0.00000000E+00 0.00000000E+00
  <rwgt>
   <wgt id='1001'> 0.15479E+04 </wgt>
   <wgt id='1002'> 0.15806E+04 </wgt>
   <wgt id='1003'> 0.15057E+04 </wgt>
   <wgt id='1004'> 0.17004E+04 </wgt>
   <wgt id='1005'> 0.17388E+04 </wgt>
   <wgt id='1006'> 0.16509E+04 </wgt>
   <wgt id='1007'> 0.13683E+04 </wgt>
   <wgt id='1008'> 0.13953E+04 </wgt>
   <wgt id='1009'> 0.13334E+04 </wgt>
  </rwgt>
  </event>
  <event>
  5      0 0.15478455E+04 0.32936463E+02 0.75467711E-02 0.12887687E+00
       -4 -1    0    0    0  501 0.00000000E+00 0.00000000E+00 0.37991054E+03 0.37991371E+03 0.15500000E+01 0.0000E+00 0.9000E+01
        4 -1    0    0  501    0 0.00000000E+00 0.00000000E+00 -.59296553E+01 0.61288916E+01 0.15500000E+01 0.0000E+00 0.9000E+01
       23  2    1    2    0    0 0.00000000E+00 0.00000000E+00 0.37398089E+03 0.38604260E+03 0.95745402E+02 0.0000E+00 0.0000E+00
      -11  1    3    3    0    0 0.17175692E+02 -.41445131E+02 0.25434875E+03 0.25827503E+03 0.51099893E-03 0.0000E+00 0.9000E+01
       11  1    3    3    0    0 -.17175692E+02 0.41445131E+02 0.11963214E+03 0.12776757E+03 0.51099893E-03 0.0000E+00 0.9000E+01
#aMCatNLO 1  0  0  2  1 0.13599742E+02 0.00000000E+00  9  5  0 0.00000000E+00 0.00000000E+00 0.00000000E+00 0.00000000E+00 0.00000000E+00
  <rwgt>
   <wgt id='1001'> 0.15479E+04 </wgt>
   <wgt id='1002'> 0.14951E+04 </wgt>
   <wgt id='1003'> 0.16088E+04 </wgt>
   <wgt id='1004'> 0.15151E+04 </wgt>
   <wgt id='1005'> 0.14858E+04 </wgt>
   <wgt id='1006'> 0.15454E+04 </wgt>
   <wgt id='1007'> 0.15588E+04 </wgt>
   <wgt id='1008'> 0.14823E+04 </wgt>
   <wgt id='1009'> 0.16510E+04 </wgt>
  </rwgt>
  </event>
  <event>
  5      0 0.15478455E+04 0.20785708E+02 0.75467711E-02 0.13106851E+00
        2 -1    0    0  501    0 0.00000000E+00 0.00000000E+00 0.14640237E+02 0.14643734E+02 0.32000000E+00 0.0000E+00 0.9000E+01
       -2 -1    0    0    0  501 0.00000000E+00 0.00000000E+00 -.14092172E+03 0.14092208E+03 0.32000000E+00 0.0000E+00 0.9000E+01
       23  2    1    2    0    0 0.00000000E+00 0.00000000E+00 -.12628148E+03 0.15556581E+03 0.90849934E+02 0.0000E+00 0.0000E+00
      -11  1    3    3    0    0 -.27555009E+02 0.35640517E+02 -.53170482E+02 0.69689491E+02 0.51099893E-03 0.0000E+00 0.9000E+01
       11  1    3    3    0    0 0.27555009E+02 -.35640517E+02 -.73110996E+02 0.85876322E+02 0.51099893E-03 0.0000E+00 0.9000E+01
#aMCatNLO 1  0  0  1  2 0.41056630E+01 0.00000000E+00  9  5  0 0.00000000E+00 0.00000000E+00 0.00000000E+00 0.00000000E+00 0.00000000E+00
  <rwgt>
   <wgt id='1001'> 0.15479E+04 </wgt>
   <wgt id='1002'> 0.15031E+04 </wgt>
   <wgt id='1003'> 0.16038E+04 </wgt>
   <wgt id='1004'> 0.16565E+04 </wgt>
   <wgt id='1005'> 0.16112E+04 </wgt>
   <wgt id='1006'> 0.17131E+04 </wgt>
   <wgt id='1007'> 0.14079E+04 </wgt>
   <wgt id='1008'> 0.13652E+04 </wgt>
   <wgt id='1009'> 0.14615E+04 </wgt>
  </rwgt>
  </event>
  <event>
  6      0 0.15478455E+04 0.33018878E+02 0.75467711E-02 0.13140119E+00
       -2 -1    0    0    0  501 0.00000000E+00 0.00000000E+00 0.17984833E+02 0.17987680E+02 0.32000000E+00 0.0000E+00 0.9000E+01
        2 -1    0    0  502    0 0.00000000E+00 0.00000000E+00 -.21042309E+03 0.21042333E+03 0.32000000E+00 0.0000E+00 0.9000E+01
       23  2    1    2    0    0 -.14029533E+02 -.18220468E+02 -.92324536E+02 0.12568744E+03 0.82126116E+02 0.0000E+00 0.0000E+00
      -11  1    3    3    0    0 -.36229777E+02 0.63490362E+01 -.11813187E+02 0.38632349E+02 0.51099893E-03 0.0000E+00 0.9000E+01
       11  1    3    3    0    0 0.22200244E+02 -.24569504E+02 -.80511348E+02 0.87055089E+02 0.51099893E-03 0.0000E+00 0.9000E+01
       21  1    1    2  502  501 0.14029533E+02 0.18220468E+02 -.10011372E+03 0.10272358E+03 0.75000000E+00 0.0000E+00 0.9000E+01
#aMCatNLO 2  0  0  2  1 0.22995940E+02 0.00000000E+00  9  5  0 0.00000000E+00 0.00000000E+00 0.00000000E+00 0.00000000E+00 0.00000000E+00
  <rwgt>
   <wgt id='1001'> 0.15479E+04 </wgt>
   <wgt id='1002'> 0.13861E+04 </wgt>
   <wgt id='1003'> 0.17536E+04 </wgt>
   <wgt id='1004'> 0.16699E+04 </wgt>
   <wgt id='1005'> 0.14954E+04 </wgt>
   <wgt id='1006'> 0.18919E+04 </wgt>
   <wgt id='1007'> 0.14030E+04 </wgt>
   <wgt id='1008'> 0.12564E+04 </wgt>
   <wgt id='1009'> 0.15895E+04 </wgt>
  </rwgt>
  </event>
  <event>
  5      0 0.15478455E+04 0.15146982E+02 0.75467711E-02 0.12695827E+00
        2 -1    0    0  501    0 0.00000000E+00 0.00000000E+00 0.13993210E+02 0.13996869E+02 0.32000000E+00 0.0000E+00 0.9000E+01
       -2 -1    0    0    0  501 0.00000000E+00 0.00000000E+00 -.15757521E+03 0.15757554E+03 0.32000000E+00 0.0000E+00 0.9000E+01
       23  2    1    2    0    0 0.00000000E+00 0.00000000E+00 -.14358200E+03 0.17157241E+03 0.93921773E+02 0.0000E+00 0.0000E+00
      -11  1    3    3    0    0 -.30773246E+02 0.30898882E+02 -.10362021E+03 0.11242278E+03 0.51099893E-03 0.0000E+00 0.9000E+01
       11  1    3    3    0    0 0.30773246E+02 -.30898882E+02 -.39961795E+02 0.59149629E+02 0.51099893E-03 0.0000E+00 0.9000E+01
#aMCatNLO 1  0  0  2  1 0.24203752E+02 0.00000000E+00  9  5  0 0.00000000E+00 0.00000000E+00 0.00000000E+00 0.00000000E+00 0.00000000E+00
  <rwgt>
   <wgt id='1001'> 0.15479E+04 </wgt>
   <wgt id='1002'> 0.15686E+04 </wgt>
   <wgt id='1003'> 0.15199E+04 </wgt>
   <wgt id='1004'> 0.11864E+04 </wgt>
   <wgt id='1005'> 0.12616E+04 </wgt>
   <wgt id='1006'> 0.10890E+04 </wgt>
   <wgt id='1007'> 0.18431E+04 </wgt>
   <wgt id='1008'> 0.18134E+04 </wgt>
   <wgt id='1009'> 0.18796E+04 </wgt>
  </rwgt>
  </event>
  <event>
  5      0 0.15478455E+04 0.42271210E+02 0.75467711E-02 0.13337695E+00
       -2 -1    0    0    0  501 0.00000000E+00 0.00000000E+00 0.32204668E+01 0.32363260E+01 0.32000000E+00 0.0000E+00 0.9000E+01
        2 -1    0    0  501    0 0.00000000E+00 0.00000000E+00 -.66279028E+03 0.66279036E+03 0.32000000E+00 0.0000E+00 0.9000E+01
       23  2    1    2    0    0 0.00000000E+00 0.00000000E+00 -.65956982E+03 0.66602669E+03 0.92515968E+02 0.0000E+00 0.0000E+00
      -11  1    3    3    0    0 -.41901860E+02 -.55757795E+01 -.19453748E+03 0.19907709E+03 0.51099893E-03 0.0000E+00 0.9000E+01
       11  1    3    3    0    0 0.41901860E+02 0.55757795E+01 -.46503233E+03 0.46694960E+03 0.51099893E-03 0.0000E+00 0.9000E+01
#aMCatNLO 1  0  0  2  1 0.54546781E+00 0.00000000E+00  9  5  0 0.00000000E+00 0.00000000E+00 0.00000000E+00 0.00000000E+00 0.00000000E+00
  <rwgt>
   <wgt id='1001'> 0.15479E+04 </wgt>
   <wgt id='1002'> 0.15616E+04 </wgt>
   <wgt id='1003'> 0.15301E+04 </wgt>
   <wgt id='1004'> 0.16721E+04 </wgt>
   <wgt id='1005'> 0.16896E+04 </wgt>
   <wgt id='1006'> 0.16495E+04 </wgt>
   <wgt id='1007'> 0.13976E+04 </wgt>
   <wgt id='1008'> 0.14077E+04 </wgt>
   <wgt id='1009'> 0.13845E+04 </wgt>
  </rwgt>
  </event>
  <event>
  6      0 0.15478455E+04 0.44275774E+02 0.75467711E-02 0.12983967E+00
       21 -1    0    0  502  501 0.00000000E+00 0.00000000E+00 0.69373315E+01 0.69777553E+01 0.75000000E+00 0.0000E+00 0.9000E+01
        1 -1    0    0  501    0 0.00000000E+00 0.00000000E+00 -.38922519E+03 0.38922532E+03 0.32000000E+00 0.0000E+00 0.9000E+01
       23  2    1    2    0    0 0.88206950E+01 -.58307919E+01 -.31680224E+03 0.32986853E+03 0.91311491E+02 0.0000E+00 0.0000E+00
      -11  1    3    3    0    0 -.23370461E+02 -.37394375E+02 -.19672854E+03 0.20161011E+03 0.51099893E-03 0.0000E+00 0.9000E+01
       11  1    3    3    0    0 0.32191156E+02 0.31563583E+02 -.12007369E+03 0.12825842E+03 0.51099893E-03 0.0000E+00 0.9000E+01
        1  1    1    2  502    0 -.88206950E+01 0.58307919E+01 -.65485623E+02 0.66334546E+02 0.32000000E+00 0.0000E+00 0.9000E+01
#aMCatNLO 2  0  0  1  2 0.10573684E+02 0.00000000E+00  9  5  0 0.00000000E+00 0.00000000E+00 0.00000000E+00 0.00000000E+00 0.00000000E+00
  <rwgt>
   <wgt id='1001'> 0.15479E+04 </wgt>
   <wgt id='1002'> 0.13879E+04 </wgt>
   <wgt id='1003'> 0.17507E+04 </wgt>
   <wgt id='1004'> 0.16656E+04 </wgt>
   <wgt id='1005'> 0.14935E+04 </wgt>
   <wgt id='1006'> 0.18839E+04 </wgt>
   <wgt id='1007'> 0.13961E+04 </wgt>
   <wgt id='1008'> 0.12519E+04 </wgt>
   <wgt id='1009'> 0.15791E+04 </wgt>
  </rwgt>
  </event>
  <event>
  5      0 0.15478455E+04 0.30000000E+02 0.75467711E-02 0.15128727E+00
       21 -1    0    0  502  501 0.00000000E+00 0.00000000E+00 0.13022528E+02 0.13044107E+02 0.75000000E+00 0.0000E+00 0.9000E+01
        2 -1    0    0  501    0 0.00000000E+00 0.00000000E+00 -.83527884E+02 0.83528497E+02 0.32000000E+00 0.0000E+00 0.9000E+01
      -11  1    1    2    0    0 -.13225119E+02 0.23207383E+01 -.56791208E+02 0.58356927E+02 0.51099893E-03 0.0000E+00 0.9000E+01
       11  1    1    2    0    0 -.79194435E+01 -.20516426E+01 0.53235051E+01 0.97604574E+01 0.51099893E-03 0.0000E+00 0.9000E+01
        2  1    1    2  502    0 0.21144562E+02 -.26909580E+00 -.19037653E+02 0.28455220E+02 0.32000000E+00 0.0000E+00 0.9000E+01
#aMCatNLO 2  0  0  1  2 0.21146274E+02 0.00000000E+00  9  5  0 0.00000000E+00 0.00000000E+00 0.00000000E+00 0.00000000E+00 0.00000000E+00
  <rwgt>
   <wgt id='1001'> 0.15479E+04 </wgt>
   <wgt id='1002'> 0.13635E+04 </wgt>
   <wgt id='1003'> 0.17921E+04 </wgt>
   <wgt id='1004'> 0.17913E+04 </wgt>
   <wgt id='1005'> 0.15779E+04 </wgt>
   <wgt id='1006'> 0.20741E+04 </wgt>
   <wgt id='1007'> 0.12619E+04 </wgt>
   <wgt id='1008'> 0.11115E+04 </wgt>
   <wgt id='1009'> 0.14610E+04 </wgt>
  </rwgt>
  </event>
  <event>
  5      0 0.15478455E+04 0.34410583E+02 0.75467711E-02 0.12761646E+00
        2 -1    0    0  501    0 0.00000000E+00 0.00000000E+00 0.64561889E+02 0.64562682E+02 0.32000000E+00 0.0000E+00 0.9000E+01
       -2 -1    0    0    0  501 0.00000000E+00 0.00000000E+00 -.38350802E+02 0.38352137E+02 0.32000000E+00 0.0000E+00 0.9000E+01
       23  2    1    2    0    0 0.00000000E+00 0.00000000E+00 0.26211087E+02 0.10291482E+03 0.99521048E+02 0.0000E+00 0.0000E+00
      -11  1    3    3    0    0 0.24770360E+02 -.43146373E+02 0.14102558E+02 0.51711337E+02 0.51099893E-03 0.0000E+00 0.9000E+01
       11  1    3    3    0    0 -.24770360E+02 0.43146373E+02 0.12108529E+02 0.51203483E+02 0.51099893E-03 0.0000E+00 0.9000E+01
#aMCatNLO 1  0  0  2  1 0.10674618E+02 0.00000000E+00  9  5  0 0.00000000E+00 0.00000000E+00 0.00000000E+00 0.00000000E+00 0.00000000E+00
  <rwgt>
   <wgt id='1001'> 0.15479E+04 </wgt>
   <wgt id='1002'> 0.15429E+04 </wgt>
   <wgt id='1003'> 0.15456E+04 </wgt>
   <wgt id='1004'> 0.12422E+04 </wgt>
   <wgt id='1005'> 0.12812E+04 </wgt>
   <wgt id='1006'> 0.11840E+04 </wgt>
   <wgt id='1007'> 0.18135E+04 </wgt>
   <wgt id='1008'> 0.17665E+04 </wgt>
   <wgt id='1009'> 0.18650E+04 </wgt>
  </rwgt>
  </event>
  <event>
  6      0 0.15478455E+04 0.42737393E+02 0.75467711E-02 0.12809173E+00
       21 -1    0    0  502  501 0.00000000E+00 0.00000000E+00 0.29081616E+02 0.29091286E+02 0.75000000E+00 0.0000E+00 0.9000E+01
        2 -1    0    0  501    0 0.00000000E+00 0.00000000E+00 -.26872047E+03 0.26872066E+03 0.32000000E+00 0.0000E+00 0.9000E+01
       23  2    1    2    0    0 0.19128869E+02 -.78614312E+01 -.25498531E+03 0.27205672E+03 0.92572313E+02 0.0000E+00 0.0000E+00
      -11  1    3    3    0    0 -.32267306E+02 0.89910778E+01 -.50957014E+02 0.60980618E+02 0.51099893E-03 0.0000E+00 0.9000E+01
       11  1    3    3    0    0 0.51396175E+02 -.16852509E+02 -.20402830E+03 0.21107610E+03 0.51099893E-03 0.0000E+00 0.9000E+01
        2  1    1    2  502    0 -.19128869E+02 0.78614312E+01 0.15346456E+02 0.25755230E+02 0.32000000E+00 0.0000E+00 0.9000E+01
#aMCatNLO 2  0  0  1  2 0.20681290E+02 0.00000000E+00  9  5  0 0.00000000E+00 0.00000000E+00 0.00000000E+00 0.00000000E+00 0.00000000E+00
  <rwgt>
   <wgt id='1001'> 0.15479E+04 </wgt>
   <wgt id='1002'> 0.13900E+04 </wgt>
   <wgt id='1003'> 0.17475E+04 </wgt>
   <wgt id='1004'> 0.15989E+04 </wgt>
   <wgt id='1005'> 0.14358E+04 </wgt>
   <wgt id='1006'> 0.18052E+04 </wgt>
   <wgt id='1007'> 0.14695E+04 </wgt>
   <wgt id='1008'> 0.13196E+04 </wgt>
   <wgt id='1009'> 0.16591E+04 </wgt>
  </rwgt>
  </event>
  <event>
  5      0 0.15478455E+04 0.45113132E+02 0.75467711E-02 0.13025426E+00
        2 -1    0    0  501    0 0.00000000E+00 0.00000000E+00 0.22304230E+02 0.22306525E+02 0.32000000E+00 0.0000E+00 0.9000E+01
       -2 -1    0    0    0  501 0.00000000E+00 0.00000000E+00 -.91407943E+02 0.91408503E+02 0.32000000E+00 0.0000E+00 0.9000E+01
       23  2    1    2    0    0 0.00000000E+00 0.00000000E+00 -.69103713E+02 0.11371503E+03 0.90309382E+02 0.0000E+00 0.0000E+00
      -11  1    3    3    0    0 0.42658153E+02 -.14679123E+02 -.36990707E+02 0.58339584E+02 0.51099893E-03 0.0000E+00 0.9000E+01
       11  1    3    3    0    0 -.42658153E+02 0.14679123E+02 -.32113006E+02 0.55375444E+02 0.51099893E-03 0.0000E+00 0.9000E+01
#aMCatNLO 1  0  0  2  2 0.73425087E+01 0.00000000E+00  9  5  0 0.00000000E+00 0.00000000E+00 0.00000000E+00 0.00000000E+00 0.00000000E+00
  <rwgt>
   <wgt id='1001'> 0.15479E+04 </wgt>
   <wgt id='1002'> 0.15614E+04 </wgt>
   <wgt id='1003'> 0.15306E+04 </wgt>
   <wgt id='1004'> 0.16802E+04 </wgt>
   <wgt id='1005'> 0.16968E+04 </wgt>
   <wgt id='1006'> 0.16591E+04 </wgt>
   <wgt id='1007'> 0.13878E+04 </wgt>
   <wgt id='1008'> 0.13984E+04 </wgt>
   <wgt id='1009'> 0.13743E+04 </wgt>
  </rwgt>
  </event>
  <event>
  5      0 0.15478455E+04 0.30000000E+02 0.75467711E-02 0.14827577E+00
       21 -1    0    0  501  502 0.00000000E+00 0.00000000E+00 0.17985205E+03 0.17985361E+03 0.75000000E+00 0.0000E+00 0.9000E+01
       -4 -1    0    0    0  501 0.00000000E+00 0.00000000E+00 -.35678406E+01 0.38899854E+01 0.15500000E+01 0.0000E+00 0.9000E+01
      -11  1    1    2    0    0 -.18445696E+02 -.23488983E+01 0.48208398E+02 0.51670210E+02 0.51099893E-03 0.0000E+00 0.9000E+01
       11  1    1    2    0    0 0.23493431E+02 0.62483705E+00 0.11994869E+03 0.12222937E+03 0.51099893E-03 0.0000E+00 0.9000E+01
       -4  1    1    2    0  502 -.50477354E+01 0.17240612E+01 0.81271238E+01 0.98440165E+01 0.15500000E+01 0.0000E+00 0.9000E+01
#aMCatNLO 2  0  0  1  2 0.53340435E+01 0.00000000E+00  9  5  0 0.00000000E+00 0.00000000E+00 0.00000000E+00 0.00000000E+00 0.00000000E+00
  <rwgt>
   <wgt id='1001'> 0.15478E+04 </wgt>
   <wgt id='1002'> 0.13668E+04 </wgt>
   <wgt id='1003'> 0.17862E+04 </wgt>
   <wgt id='1004'> 0.18153E+04 </wgt>
   <wgt id='1005'> 0.16030E+04 </wgt>
   <wgt id='1006'> 0.20948E+04 </wgt>
   <wgt id='1007'> 0.12270E+04 </wgt>
   <wgt id='1008'> 0.10835E+04 </wgt>
   <wgt id='1009'> 0.14159E+04 </wgt>
  </rwgt>
  </event>
  <event>
  5      0 0.15478455E+04 0.23332802E+02 0.75467711E-02 0.14530679E+00
       -3 -1    0    0    0  501 0.00000000E+00 0.00000000E+00 0.41358576E+01 0.41659715E+01 0.50000000E+00 0.0000E+00 0.9000E+01
        3 -1    0    0  501    0 0.00000000E+00 0.00000000E+00 -.48558630E+03 0.48558656E+03 0.50000000E+00 0.0000E+00 0.9000E+01
       23  2    1    2    0    0 0.00000000E+00 0.00000000E+00 -.48145044E+03 0.48975253E+03 0.89794271E+02 0.0000E+00 0.0000E+00
      -11  1    3    3    0    0 -.22593691E+02 0.71864891E+01 -.44867350E+03 0.44929949E+03 0.51099893E-03 0.0000E+00 0.9000E+01
       11  1    3    3    0    0 0.22593691E+02 -.71864891E+01 -.32776940E+02 0.40453038E+02 0.51099893E-03 0.0000E+00 0.9000E+01
#aMCatNLO 1  0  0  1  2 0.50802649E+01 0.00000000E+00  9  5  0 0.00000000E+00 0.00000000E+00 0.00000000E+00 0.00000000E+00 0.00000000E+00
  <rwgt>
   <wgt id='1001'> 0.15479E+04 </wgt>
   <wgt id='1002'> 0.15932E+04 </wgt>
   <wgt id='1003'> 0.14744E+04 </wgt>
   <wgt id='1004'> 0.86978E+03 </wgt>
   <wgt id='1005'> 0.10235E+04 </wgt>
   <wgt id='1006'> 0.65229E+03 </wgt>
   <wgt id='1007'> 0.20608E+04 </wgt>
   <wgt id='1008'> 0.20117E+04 </wgt>
   <wgt id='1009'> 0.21135E+04 </wgt>
  </rwgt>
  </event>
  <event>
  5      0 0.15478455E+04 0.17057753E+02 0.75467711E-02 0.12865830E+00
       -2 -1    0    0    0  501 0.00000000E+00 0.00000000E+00 0.81020814E+03 0.81020820E+03 0.32000000E+00 0.0000E+00 0.9000E+01
        2 -1    0    0  501    0 0.00000000E+00 0.00000000E+00 -.24805985E+01 0.25011535E+01 0.32000000E+00 0.0000E+00 0.9000E+01
       23  2    1    2    0    0 0.00000000E+00 0.00000000E+00 0.80772754E+03 0.81270936E+03 0.89848300E+02 0.0000E+00 0.0000E+00
      -11  1    3    3    0    0 0.37762240E+02 -.17006066E+02 0.56131165E+03 0.56283742E+03 0.51099893E-03 0.0000E+00 0.9000E+01
       11  1    3    3    0    0 -.37762240E+02 0.17006066E+02 0.24641589E+03 0.24987194E+03 0.51099893E-03 0.0000E+00 0.9000E+01
#aMCatNLO 1  0  0  2  1 0.20421123E+02 0.00000000E+00  9  5  0 0.00000000E+00 0.00000000E+00 0.00000000E+00 0.00000000E+00 0.00000000E+00
  <rwgt>
   <wgt id='1001'> 0.15479E+04 </wgt>
   <wgt id='1002'> 0.15033E+04 </wgt>
   <wgt id='1003'> 0.16031E+04 </wgt>
   <wgt id='1004'> 0.13868E+04 </wgt>
   <wgt id='1005'> 0.13656E+04 </wgt>
   <wgt id='1006'> 0.14120E+04 </wgt>
   <wgt id='1007'> 0.16840E+04 </wgt>
   <wgt id='1008'> 0.16166E+04 </wgt>
   <wgt id='1009'> 0.17683E+04 </wgt>
  </rwgt>
  </event>
  <event>
  5      0 0.15478455E+04 0.30000000E+02 0.75467711E-02 0.17299891E+00
       -1 -1    0    0    0  501 0.00000000E+00 0.00000000E+00 0.25479641E+01 0.25679800E+01 0.32000000E+00 0.0000E+00 0.9000E+01
        1 -1    0    0  501    0 0.00000000E+00 0.00000000E+00 -.81935564E+03 0.81935570E+03 0.32000000E+00 0.0000E+00 0.9000E+01
       23  2    1    2    0    0 0.00000000E+00 0.00000000E+00 -.81680767E+03 0.82192368E+03 0.91562877E+02 0.0000E+00 0.0000E+00
      -11  1    3    3    0    0 0.89347958E+00 0.64320395E+01 -.15971933E+01 0.66873362E+01 0.51099893E-03 0.0000E+00 0.9000E+01
       11  1    3    3    0    0 -.89347958E+00 -.64320395E+01 -.81521048E+03 0.81523634E+03 0.51099893E-03 0.0000E+00 0.9000E+01
#aMCatNLO 1  0  0  1  2 0.83567617E+01 0.00000000E+00  9  5  0 0.00000000E+00 0.00000000E+00 0.00000000E+00 0.00000000E+00 0.00000000E+00
  <rwgt>
   <wgt id='1001'> 0.15479E+04 </wgt>
   <wgt id='1002'> 0.15045E+04 </wgt>
   <wgt id='1003'> 0.16151E+04 </wgt>
   <wgt id='1004'> 0.18006E+04 </wgt>
   <wgt id='1005'> 0.17527E+04 </wgt>
   <wgt id='1006'> 0.18751E+04 </wgt>
   <wgt id='1007'> 0.12460E+04 </wgt>
   <wgt id='1008'> 0.12095E+04 </wgt>
   <wgt id='1009'> 0.13027E+04 </wgt>
  </rwgt>
  </event>
  <event>
  5      0 0.15478455E+04 0.19223694E+02 0.75467711E-02 0.12975944E+00
        2 -1    0    0  501    0 0.00000000E+00 0.00000000E+00 0.10426504E+04 0.10426505E+04 0.32000000E+00 0.0000E+00 0.9000E+01
       -2 -1    0    0    0  501 0.00000000E+00 0.00000000E+00 -.19480693E+01 0.19741768E+01 0.32000000E+00 0.0000E+00 0.9000E+01
       23  2    1    2    0    0 0.00000000E+00 0.00000000E+00 0.10407023E+04 0.10446246E+04 0.90439307E+02 0.0000E+00 0.0000E+00
      -11  1    3    3    0    0 -.35309260E+02 0.28010132E+02 0.47790279E+03 0.48002332E+03 0.51099893E-03 0.0000E+00 0.9000E+01
       11  1    3    3    0    0 0.35309260E+02 -.28010132E+02 0.56279955E+03 0.56460132E+03 0.51099893E-03 0.0000E+00 0.9000E+01
#aMCatNLO 1  0  0  2  1 0.94876302E+01 0.00000000E+00  9  5  0 0.00000000E+00 0.00000000E+00 0.00000000E+00 0.00000000E+00 0.00000000E+00
  <rwgt>
   <wgt id='1001'> 0.15479E+04 </wgt>
   <wgt id='1002'> 0.14973E+04 </wgt>
   <wgt id='1003'> 0.16113E+04 </wgt>
   <wgt id='1004'> 0.16513E+04 </wgt>
   <wgt id='1005'> 0.15987E+04 </wgt>
   <wgt id='1006'> 0.17173E+04 </wgt>
   <wgt id='1007'> 0.14150E+04 </wgt>
   <wgt id='1008'> 0.13678E+04 </wgt>
   <wgt id='1009'> 0.14742E+04 </wgt>
  </rwgt>
  </event>
  <event>
  5      0 0.15478455E+04 0.37751603E+02 0.75467711E-02 0.13114367E+00
        2 -1    0    0  501    0 0.00000000E+00 0.00000000E+00 0.51954827E+03 0.51954837E+03 0.32000000E+00 0.0000E+00 0.9000E+01
       -2 -1    0    0    0  501 0.00000000E+00 0.00000000E+00 -.38600340E+01 0.38732754E+01 0.32000000E+00 0.0000E+00 0.9000E+01
       23  2    1    2    0    0 0.00000000E+00 0.00000000E+00 0.51568824E+03 0.52342165E+03 0.89642962E+02 0.0000E+00 0.0000E+00
      -11  1    3    3    0    0 0.29175760E+02 -.23957432E+02 0.11676566E+03 0.12271676E+03 0.51099893E-03 0.0000E+00 0.9000E+01
       11  1    3    3    0    0 -.29175760E+02 0.23957432E+02 0.39892258E+03 0.40070489E+03 0.51099893E-03 0.0000E+00 0.9000E+01
#aMCatNLO 1  0  0  2  2 0.17022058E+02 0.00000000E+00  9  5  0 0.00000000E+00 0.00000000E+00 0.00000000E+00 0.00000000E+00 0.00000000E+00
  <rwgt>
   <wgt id='1001'> 0.15479E+04 </wgt>
   <wgt id='1002'> 0.15482E+04 </wgt>
   <wgt id='1003'> 0.15475E+04 </wgt>
   <wgt id='1004'> 0.16954E+04 </wgt>
   <wgt id='1005'> 0.16974E+04 </wgt>
   <wgt id='1006'> 0.16928E+04 </wgt>
   <wgt id='1007'> 0.13741E+04 </wgt>
   <wgt id='1008'> 0.13731E+04 </wgt>
   <wgt id='1009'> 0.13755E+04 </wgt>
  </rwgt>
  </event>
  <event>
  6      0 0.15478455E+04 0.44830574E+02 0.75467711E-02 0.11790860E+00
        1 -1    0    0  501    0 0.00000000E+00 0.00000000E+00 0.11382958E+04 0.11382959E+04 0.32000000E+00 0.0000E+00 0.9000E+01
       21 -1    0    0  502  501 0.00000000E+00 0.00000000E+00 -.75277649E+01 0.75650343E+01 0.75000000E+00 0.0000E+00 0.9000E+01
       23  2    1    2    0    0 -.69480481E+02 -.73232469E+01 0.71087840E+03 0.72019837E+03 0.91958796E+02 0.0000E+00 0.0000E+00
      -11  1    3    3    0    0 -.69191805E+02 0.30504952E+02 0.40599015E+03 0.41297223E+03 0.51099893E-03 0.0000E+00 0.9000E+01
       11  1    3    3    0    0 -.28867554E+00 -.37828199E+02 0.30488825E+03 0.30722614E+03 0.51099893E-03 0.0000E+00 0.9000E+01
        1  1    1    2  502    0 0.69480481E+02 0.73232469E+01 0.41988966E+03 0.42566254E+03 0.32000000E+00 0.0000E+00 0.9000E+01
#aMCatNLO 2  0  0  2  2 0.69865350E+02 0.00000000E+00  9  5  0 0.00000000E+00 0.00000000E+00 0.00000000E+00 0.00000000E+00 0.00000000E+00
  <rwgt>
   <wgt id='1001'> 0.15478E+04 </wgt>
   <wgt id='1002'> 0.14027E+04 </wgt>
   <wgt id='1003'> 0.17289E+04 </wgt>
   <wgt id='1004'> 0.15518E+04 </wgt>
   <wgt id='1005'> 0.14064E+04 </wgt>
   <wgt id='1006'> 0.17334E+04 </wgt>
   <wgt id='1007'> 0.15222E+04 </wgt>
   <wgt id='1008'> 0.13795E+04 </wgt>
   <wgt id='1009'> 0.17002E+04 </wgt>
  </rwgt>
  </event>
  <event>
  5      0 0.15478455E+04 0.30000000E+02 0.75467711E-02 0.12608178E+00
       -2 -1    0    0    0  501 0.00000000E+00 0.00000000E+00 0.22661528E+02 0.22663787E+02 0.32000000E+00 0.0000E+00 0.9000E+01
        2 -1    0    0  501    0 0.00000000E+00 0.00000000E+00 -.92110977E+02 0.92111533E+02 0.32000000E+00 0.0000E+00 0.9000E+01
       23  2    1    2    0    0 0.00000000E+00 0.00000000E+00 -.69449449E+02 0.11477532E+03 0.91379145E+02 0.0000E+00 0.0000E+00
      -11  1    3    3    0    0 0.36846714E+01 -.12922627E+02 0.20124803E+02 0.24198735E+02 0.51099893E-03 0.0000E+00 0.9000E+01
       11  1    3    3    0    0 -.36846714E+01 0.12922627E+02 -.89574252E+02 0.90576585E+02 0.51099893E-03 0.0000E+00 0.9000E+01
#aMCatNLO 1  0  0  1  1 0.58130417E+02 0.00000000E+00  9  5  0 0.00000000E+00 0.00000000E+00 0.00000000E+00 0.00000000E+00 0.00000000E+00
  <rwgt>
   <wgt id='1001'> 0.15479E+04 </wgt>
   <wgt id='1002'> 0.14415E+04 </wgt>
   <wgt id='1003'> 0.16932E+04 </wgt>
   <wgt id='1004'> 0.13746E+04 </wgt>
   <wgt id='1005'> 0.13061E+04 </wgt>
   <wgt id='1006'> 0.14680E+04 </wgt>
   <wgt id='1007'> 0.16149E+04 </wgt>
   <wgt id='1008'> 0.14823E+04 </wgt>
   <wgt id='1009'> 0.17962E+04 </wgt>
  </rwgt>
  </event>
  <event>
  5      0 0.15478455E+04 0.18908694E+02 0.75467711E-02 0.13302607E+00
        3 -1    0    0  501    0 0.00000000E+00 0.00000000E+00 0.85626715E+01 0.85772573E+01 0.50000000E+00 0.0000E+00 0.9000E+01
       -3 -1    0    0    0  501 0.00000000E+00 0.00000000E+00 -.24168981E+03 0.24169033E+03 0.50000000E+00 0.0000E+00 0.9000E+01
       23  2    1    2    0    0 0.00000000E+00 0.00000000E+00 -.23312714E+03 0.25026759E+03 0.91025278E+02 0.0000E+00 0.0000E+00
      -11  1    3    3    0    0 0.32608667E+02 -.11469881E+02 -.35163879E+02 0.49309043E+02 0.51099893E-03 0.0000E+00 0.9000E+01
       11  1    3    3    0    0 -.32608667E+02 0.11469881E+02 -.19796326E+03 0.20095854E+03 0.51099893E-03 0.0000E+00 0.9000E+01
#aMCatNLO 1  0  0  2  1 0.15846604E+02 0.00000000E+00  9  5  0 0.00000000E+00 0.00000000E+00 0.00000000E+00 0.00000000E+00 0.00000000E+00
  <rwgt>
   <wgt id='1001'> 0.15478E+04 </wgt>
   <wgt id='1002'> 0.15044E+04 </wgt>
   <wgt id='1003'> 0.16022E+04 </wgt>
   <wgt id='1004'> 0.19909E+04 </wgt>
   <wgt id='1005'> 0.19148E+04 </wgt>
   <wgt id='1006'> 0.20873E+04 </wgt>
   <wgt id='1007'> 0.12003E+04 </wgt>
   <wgt id='1008'> 0.11764E+04 </wgt>
   <wgt id='1009'> 0.12295E+04 </wgt>
  </rwgt>
  </event>
  <event>
  4      0 0.15478455E+04 0.30000000E+02 0.75467711E-02 0.13957853E+00
        2 -1    0    0  501    0 0.00000000E+00 0.00000000E+00 0.18884506E+01 0.19153709E+01 0.32000000E+00 0.0000E+00 0.9000E+01
       -2 -1    0    0    0  501 0.00000000E+00 0.00000000E+00 -.14032929E+03 0.14032966E+03 0.32000000E+00 0.0000E+00 0.9000E+01
      -11  1    1    2    0    0 -.10942561E+01 0.53834678E+01 -.22387777E+01 0.59322211E+01 0.51099893E-03 0.0000E+00 0.9000E+01
       11  1    1    2    0    0 0.10942561E+01 -.53834678E+01 -.13620207E+03 0.13631281E+03 0.51099893E-03 0.0000E+00 0.9000E+01
#aMCatNLO 1  0  0  1  2 0.31975064E+02 0.00000000E+00  9  5  0 0.00000000E+00 0.00000000E+00 0.00000000E+00 0.00000000E+00 0.00000000E+00
  <rwgt>
   <wgt id='1001'> 0.15478E+04 </wgt>
   <wgt id='1002'> 0.15117E+04 </wgt>
   <wgt id='1003'> 0.16072E+04 </wgt>
   <wgt id='1004'> 0.21014E+04 </wgt>
   <wgt id='1005'> 0.20555E+04 </wgt>
   <wgt id='1006'> 0.21764E+04 </wgt>
   <wgt id='1007'> 0.10080E+04 </wgt>
   <wgt id='1008'> 0.98287E+03 </wgt>
   <wgt id='1009'> 0.10493E+04 </wgt>
  </rwgt>
  </event>
  <event>
  5      0 0.15478455E+04 0.30000000E+02 0.75467711E-02 0.13966894E+00
        1 -1    0    0  501    0 0.00000000E+00 0.00000000E+00 0.46124473E+02 0.46125583E+02 0.32000000E+00 0.0000E+00 0.9000E+01
       -1 -1    0    0    0  501 0.00000000E+00 0.00000000E+00 -.44595582E+02 0.44596730E+02 0.32000000E+00 0.0000E+00 0.9000E+01
       23  2    1    2    0    0 0.00000000E+00 0.00000000E+00 0.15288911E+01 0.90722314E+02 0.90709430E+02 0.0000E+00 0.0000E+00
      -11  1    3    3    0    0 0.22073541E+01 0.59556941E+01 -.44149699E+02 0.44604245E+02 0.51099893E-03 0.0000E+00 0.9000E+01
       11  1    3    3    0    0 -.22073541E+01 -.59556941E+01 0.45678590E+02 0.46118069E+02 0.51099893E-03 0.0000E+00 0.9000E+01
#aMCatNLO 1  0  0  1  1 0.32296760E+02 0.00000000E+00  9  5  0 0.00000000E+00 0.00000000E+00 0.00000000E+00 0.00000000E+00 0.00000000E+00
  <rwgt>
   <wgt id='1001'> 0.15478E+04 </wgt>
   <wgt id='1002'> 0.14581E+04 </wgt>
   <wgt id='1003'> 0.16881E+04 </wgt>
   <wgt id='1004'> 0.19232E+04 </wgt>
   <wgt id='1005'> 0.18133E+04 </wgt>
   <wgt id='1006'> 0.20952E+04 </wgt>
   <wgt id='1007'> 0.11199E+04 </wgt>
   <wgt id='1008'> 0.10542E+04 </wgt>
   <wgt id='1009'> 0.12228E+04 </wgt>
  </rwgt>
  </event>
  <event>
  4      0 0.15478455E+04 0.19724547E+02 0.75467711E-02 0.14781370E+00
       -2 -1    0    0    0  501 0.00000000E+00 0.00000000E+00 0.15165673E+00 0.35411829E+00 0.32000000E+00 0.0000E+00 0.9000E+01
        2 -1    0    0  501    0 0.00000000E+00 0.00000000E+00 -.12236406E+04 0.12236406E+04 0.32000000E+00 0.0000E+00 0.9000E+01
      -11  1    1    2    0    0 -.54266864E+01 0.15313026E+02 -.84654561E+03 0.84670149E+03 0.51099893E-03 0.0000E+00 0.9000E+01
       11  1    1    2    0    0 0.54266864E+01 -.15313026E+02 -.37694331E+03 0.37729325E+03 0.51099893E-03 0.0000E+00 0.9000E+01
#aMCatNLO 1  0  0  1  2 0.13170899E+02 0.00000000E+00  9  5  0 0.00000000E+00 0.00000000E+00 0.00000000E+00 0.00000000E+00 0.00000000E+00
  <rwgt>
   <wgt id='1001'> 0.15479E+04 </wgt>
   <wgt id='1002'> 0.14732E+04 </wgt>
   <wgt id='1003'> 0.16424E+04 </wgt>
   <wgt id='1004'> 0.10561E+04 </wgt>
   <wgt id='1005'> 0.10637E+04 </wgt>
   <wgt id='1006'> 0.10389E+04 </wgt>
   <wgt id='1007'> 0.17838E+04 </wgt>
   <wgt id='1008'> 0.16571E+04 </wgt>
   <wgt id='1009'> 0.19496E+04 </wgt>
  </rwgt>
  </event>
  <event>
  6      0 0.15478455E+04 0.45310467E+02 0.75467711E-02 0.12146253E+00
        1 -1    0    0  501    0 0.00000000E+00 0.00000000E+00 0.51439386E+03 0.51439396E+03 0.32000000E+00 0.0000E+00 0.9000E+01
       21 -1    0    0  502  501 0.00000000E+00 0.00000000E+00 -.21469755E+02 0.21482851E+02 0.75000000E+00 0.0000E+00 0.9000E+01
       23  2    1    2    0    0 -.44344119E+02 -.19360236E+02 0.47149814E+03 0.48295806E+03 0.92718787E+02 0.0000E+00 0.0000E+00
      -11  1    3    3    0    0 -.33776097E+02 -.55483140E+02 0.25087329E+03 0.25914592E+03 0.51099893E-03 0.0000E+00 0.9000E+01
       11  1    3    3    0    0 -.10568021E+02 0.36122904E+02 0.22062486E+03 0.22381214E+03 0.51099893E-03 0.0000E+00 0.9000E+01
        1  1    1    2  502    0 0.44344119E+02 0.19360236E+02 0.21425963E+02 0.52918748E+02 0.32000000E+00 0.0000E+00 0.9000E+01
#aMCatNLO 2  0  0  2  1 0.48386151E+02 0.00000000E+00  9  5  0 0.00000000E+00 0.00000000E+00 0.00000000E+00 0.00000000E+00 0.00000000E+00
  <rwgt>
   <wgt id='1001'> 0.15478E+04 </wgt>
   <wgt id='1002'> 0.13976E+04 </wgt>
   <wgt id='1003'> 0.17354E+04 </wgt>
   <wgt id='1004'> 0.15645E+04 </wgt>
   <wgt id='1005'> 0.14127E+04 </wgt>
   <wgt id='1006'> 0.17540E+04 </wgt>
   <wgt id='1007'> 0.15091E+04 </wgt>
   <wgt id='1008'> 0.13627E+04 </wgt>
   <wgt id='1009'> 0.16919E+04 </wgt>
  </rwgt>
  </event>
  <event>
  5      0 0.15478455E+04 0.41353454E+02 0.75467711E-02 0.13385046E+00
       -2 -1    0    0    0  501 0.00000000E+00 0.00000000E+00 0.48676977E+01 0.48782047E+01 0.32000000E+00 0.0000E+00 0.9000E+01
        2 -1    0    0  501    0 0.00000000E+00 0.00000000E+00 -.43532690E+03 0.43532702E+03 0.32000000E+00 0.0000E+00 0.9000E+01
       23  2    1    2    0    0 0.00000000E+00 0.00000000E+00 -.43045921E+03 0.44020523E+03 0.92116844E+02 0.0000E+00 0.0000E+00
      -11  1    3    3    0    0 -.16905290E+02 -.37740155E+02 -.31214208E+03 0.31486948E+03 0.51099893E-03 0.0000E+00 0.9000E+01
       11  1    3    3    0    0 0.16905290E+02 0.37740155E+02 -.11831712E+03 0.12533575E+03 0.51099893E-03 0.0000E+00 0.9000E+01
#aMCatNLO 1  0  0  1  1 0.64266036E+00 0.00000000E+00  9  5  0 0.00000000E+00 0.00000000E+00 0.00000000E+00 0.00000000E+00 0.00000000E+00
  <rwgt>
   <wgt id='1001'> 0.15479E+04 </wgt>
   <wgt id='1002'> 0.15101E+04 </wgt>
   <wgt id='1003'> 0.15961E+04 </wgt>
   <wgt id='1004'> 0.16929E+04 </wgt>
   <wgt id='1005'> 0.16527E+04 </wgt>
   <wgt id='1006'> 0.17443E+04 </wgt>
   <wgt id='1007'> 0.13749E+04 </wgt>
   <wgt id='1008'> 0.13407E+04 </wgt>
   <wgt id='1009'> 0.14186E+04 </wgt>
  </rwgt>
  </event>
  <event>
  4      0 0.15478455E+04 0.25557827E+02 0.75467711E-02 0.14036411E+00
       -1 -1    0    0    0  501 0.00000000E+00 0.00000000E+00 0.41856672E+01 0.41978816E+01 0.32000000E+00 0.0000E+00 0.9000E+01
        1 -1    0    0  501    0 0.00000000E+00 0.00000000E+00 -.30777950E+03 0.30777966E+03 0.32000000E+00 0.0000E+00 0.9000E+01
      -11  1    1    2    0    0 -.78501035E+01 -.25534584E+02 -.47520494E+02 0.54514552E+02 0.51099893E-03 0.0000E+00 0.9000E+01
       11  1    1    2    0    0 0.78501035E+01 0.25534584E+02 -.25607334E+03 0.25746299E+03 0.51099893E-03 0.0000E+00 0.9000E+01
#aMCatNLO 1  0  0  1  2 0.94847788E+01 0.00000000E+00  9  5  0 0.00000000E+00 0.00000000E+00 0.00000000E+00 0.00000000E+00 0.00000000E+00
  <rwgt>
   <wgt id='1001'> 0.15478E+04 </wgt>
   <wgt id='1002'> 0.17064E+04 </wgt>
   <wgt id='1003'> 0.12626E+04 </wgt>
   <wgt id='1004'> 0.92086E+03 </wgt>
   <wgt id='1005'> 0.11773E+04 </wgt>
   <wgt id='1006'> 0.50443E+03 </wgt>
   <wgt id='1007'> 0.22285E+04 </wgt>
   <wgt id='1008'> 0.22764E+04 </wgt>
   <wgt id='1009'> 0.20929E+04 </wgt>
  </rwgt>
  </event>
  <event>
  5      0 0.15478455E+04 0.26041600E+02 0.75467711E-02 0.13031952E+00
        2 -1    0    0  501    0 0.00000000E+00 0.00000000E+00 0.19746663E+04 0.19746663E+04 0.32000000E+00 0.0000E+00 0.9000E+01
       -2 -1    0    0    0  501 0.00000000E+00 0.00000000E+00 -.10617794E+01 0.11089524E+01 0.32000000E+00 0.0000E+00 0.9000E+01
       23  2    1    2    0    0 0.00000000E+00 0.00000000E+00 0.19736045E+04 0.19757753E+04 0.92591290E+02 0.0000E+00 0.0000E+00
      -11  1    3    3    0    0 -.42824232E+02 0.17513082E+02 0.10216298E+04 0.10226769E+04 0.51099893E-03 0.0000E+00 0.9000E+01
       11  1    3    3    0    0 0.42824232E+02 -.17513082E+02 0.95197472E+03 0.95309837E+03 0.51099893E-03 0.0000E+00 0.9000E+01
#aMCatNLO 1  0  0  1  2 0.49105462E+01 0.00000000E+00  9  5  0 0.00000000E+00 0.00000000E+00 0.00000000E+00 0.00000000E+00 0.00000000E+00
  <rwgt>
   <wgt id='1001'> 0.15479E+04 </wgt>
   <wgt id='1002'> 0.14355E+04 </wgt>
   <wgt id='1003'> 0.16905E+04 </wgt>
   <wgt id='1004'> 0.20150E+04 </wgt>
   <wgt id='1005'> 0.18552E+04 </wgt>
   <wgt id='1006'> 0.22183E+04 </wgt>
   <wgt id='1007'> 0.10990E+04 </wgt>
   <wgt id='1008'> 0.10315E+04 </wgt>
   <wgt id='1009'> 0.11846E+04 </wgt>
  </rwgt>
  </event>
  <event>
  5      0 0.15478455E+04 0.34880145E+02 0.75467711E-02 0.13594845E+00
       -2 -1    0    0    0  501 0.00000000E+00 0.00000000E+00 0.37359173E+03 0.37359187E+03 0.32000000E+00 0.0000E+00 0.9000E+01
        2 -1    0    0  501    0 0.00000000E+00 0.00000000E+00 -.50050937E+01 0.50153128E+01 0.32000000E+00 0.0000E+00 0.9000E+01
       23  2    1    2    0    0 0.00000000E+00 0.00000000E+00 0.36858664E+03 0.37860718E+03 0.86529117E+02 0.0000E+00 0.0000E+00
      -11  1    3    3    0    0 0.20737184E+02 0.28046278E+02 0.72294690E+02 0.80269213E+02 0.51099893E-03 0.0000E+00 0.9000E+01
       11  1    3    3    0    0 -.20737184E+02 -.28046278E+02 0.29629195E+03 0.29833797E+03 0.51099893E-03 0.0000E+00 0.9000E+01
#aMCatNLO 1  0  0  2  1 0.61834963E+01 0.00000000E+00  9  5  0 0.00000000E+00 0.00000000E+00 0.00000000E+00 0.00000000E+00 0.00000000E+00
  <rwgt>
   <wgt id='1001'> 0.15479E+04 </wgt>
   <wgt id='1002'> 0.15618E+04 </wgt>
   <wgt id='1003'> 0.15298E+04 </wgt>
   <wgt id='1004'> 0.16637E+04 </wgt>
   <wgt id='1005'> 0.16809E+04 </wgt>
   <wgt id='1006'> 0.16413E+04 </wgt>
   <wgt id='1007'> 0.14014E+04 </wgt>
   <wgt id='1008'> 0.14122E+04 </wgt>
   <wgt id='1009'> 0.13873E+04 </wgt>
  </rwgt>
  </event>
  <event>
  5      0 0.15478455E+04 0.30000000E+02 0.75467711E-02 0.11956619E+00
        1 -1    0    0  501    0 0.00000000E+00 0.00000000E+00 0.41605659E+02 0.41606889E+02 0.32000000E+00 0.0000E+00 0.9000E+01
       -1 -1    0    0    0  501 0.00000000E+00 0.00000000E+00 -.47644597E+02 0.47645672E+02 0.32000000E+00 0.0000E+00 0.9000E+01
       23  2    1    2    0    0 0.00000000E+00 0.00000000E+00 -.60389386E+01 0.89252561E+02 0.89048026E+02 0.0000E+00 0.0000E+00
      -11  1    3    3    0    0 -.24196989E+02 -.96269168E+01 -.39216350E+02 0.47075406E+02 0.51099893E-03 0.0000E+00 0.9000E+01
       11  1    3    3    0    0 0.24196989E+02 0.96269168E+01 0.33177411E+02 0.42177155E+02 0.51099893E-03 0.0000E+00 0.9000E+01
#aMCatNLO 1  0  0  1  1 0.76168688E+02 0.00000000E+00  9  5  0 0.00000000E+00 0.00000000E+00 0.00000000E+00 0.00000000E+00 0.00000000E+00
  <rwgt>
   <wgt id='1001'> 0.15478E+04 </wgt>
   <wgt id='1002'> 0.15493E+04 </wgt>
   <wgt id='1003'> 0.15458E+04 </wgt>
   <wgt id='1004'> 0.17327E+04 </wgt>
   <wgt id='1005'> 0.17364E+04 </wgt>
   <wgt id='1006'> 0.17278E+04 </wgt>
   <wgt id='1007'> 0.13283E+04 </wgt>
   <wgt id='1008'> 0.13282E+04 </wgt>
   <wgt id='1009'> 0.13286E+04 </wgt>
  </rwgt>
  </event>
  <event>
  6      0 0.15478455E+04 0.42222221E+02 0.75467711E-02 0.11213155E+00
        2 -1    0    0  501    0 0.00000000E+00 0.00000000E+00 0.25372843E+03 0.25372864E+03 0.32000000E+00 0.0000E+00 0.9000E+01
       -2 -1    0    0    0  502 0.00000000E+00 0.00000000E+00 -.77816680E+02 0.77817338E+02 0.32000000E+00 0.0000E+00 0.9000E+01
       23  2    1    2    0    0 0.21653812E+02 0.11474023E+03 0.13908417E+03 0.20910807E+03 0.10367048E+03 0.0000E+00 0.0000E+00
      -11  1    3    3    0    0 -.28926212E+02 0.24406925E+02 0.83324777E+02 0.91517442E+02 0.51099893E-03 0.0000E+00 0.9000E+01
       11  1    3    3    0    0 0.50580024E+02 0.90333305E+02 0.55759396E+02 0.11759062E+03 0.51099893E-03 0.0000E+00 0.9000E+01
       21  1    1    2  501  502 -.21653812E+02 -.11474023E+03 0.36827582E+02 0.12243791E+03 0.75000000E+00 0.0000E+00 0.9000E+01
#aMCatNLO 2  0  0  2  2 0.11676561E+03 0.00000000E+00  9  5  0 0.00000000E+00 0.00000000E+00 0.00000000E+00 0.00000000E+00 0.00000000E+00
  <rwgt>
   <wgt id='1001'> 0.15479E+04 </wgt>
   <wgt id='1002'> 0.14156E+04 </wgt>
   <wgt id='1003'> 0.17185E+04 </wgt>
   <wgt id='1004'> 0.15658E+04 </wgt>
   <wgt id='1005'> 0.14322E+04 </wgt>
   <wgt id='1006'> 0.17386E+04 </wgt>
   <wgt id='1007'> 0.15183E+04 </wgt>
   <wgt id='1008'> 0.13886E+04 </wgt>
   <wgt id='1009'> 0.16857E+04 </wgt>
  </rwgt>
  </event>
  <event>
  5      0 0.15478455E+04 0.35198240E+02 0.75467711E-02 0.12539208E+00
        3 -1    0    0  501    0 0.00000000E+00 0.00000000E+00 0.86505385E+02 0.86506830E+02 0.50000000E+00 0.0000E+00 0.9000E+01
       -3 -1    0    0    0  501 0.00000000E+00 0.00000000E+00 -.24009185E+02 0.24014391E+02 0.50000000E+00 0.0000E+00 0.9000E+01
       23  2    1    2    0    0 0.00000000E+00 0.00000000E+00 0.62496200E+02 0.11052122E+03 0.91154623E+02 0.0000E+00 0.0000E+00
      -11  1    3    3    0    0 0.23613527E+02 -.26102058E+02 -.38582917E+01 0.35409074E+02 0.51099893E-03 0.0000E+00 0.9000E+01
       11  1    3    3    0    0 -.23613527E+02 0.26102058E+02 0.66354491E+02 0.75112147E+02 0.51099893E-03 0.0000E+00 0.9000E+01
#aMCatNLO 1  0  0  2  1 0.42967451E+02 0.00000000E+00  9  5  0 0.00000000E+00 0.00000000E+00 0.00000000E+00 0.00000000E+00 0.00000000E+00
  <rwgt>
   <wgt id='1001'> 0.15478E+04 </wgt>
   <wgt id='1002'> 0.15458E+04 </wgt>
   <wgt id='1003'> 0.15505E+04 </wgt>
   <wgt id='1004'> 0.17502E+04 </wgt>
   <wgt id='1005'> 0.17497E+04 </wgt>
   <wgt id='1006'> 0.17510E+04 </wgt>
   <wgt id='1007'> 0.13106E+04 </wgt>
   <wgt id='1008'> 0.13076E+04 </wgt>
   <wgt id='1009'> 0.13145E+04 </wgt>
  </rwgt>
  </event>
  <event>
  6      0 0.15478455E+04 0.31871339E+02 0.75467711E-02 0.12964978E+00
        3 -1    0    0  502    0 0.00000000E+00 0.00000000E+00 0.40542183E+03 0.40542214E+03 0.50000000E+00 0.0000E+00 0.9000E+01
       -3 -1    0    0    0  501 0.00000000E+00 0.00000000E+00 -.10761348E+02 0.10772958E+02 0.50000000E+00 0.0000E+00 0.9000E+01
       23  2    1    2    0    0 -.30905339E+02 -.19382789E+01 0.33570065E+03 0.34959389E+03 0.92531410E+02 0.0000E+00 0.0000E+00
      -11  1    3    3    0    0 -.37822386E+02 0.22677065E+02 0.70453700E+02 0.83117423E+02 0.51099893E-03 0.0000E+00 0.9000E+01
       11  1    3    3    0    0 0.69170473E+01 -.24615344E+02 0.26524695E+03 0.26647647E+03 0.51099893E-03 0.0000E+00 0.9000E+01
       21  1    1    2  502  501 0.30905339E+02 0.19382789E+01 0.58959828E+02 0.66601207E+02 0.75000000E+00 0.0000E+00 0.9000E+01
#aMCatNLO 2  0  0  1  2 0.30966061E+02 0.00000000E+00  9  5  0 0.00000000E+00 0.00000000E+00 0.00000000E+00 0.00000000E+00 0.00000000E+00
  <rwgt>
   <wgt id='1001'> 0.15478E+04 </wgt>
   <wgt id='1002'> 0.13881E+04 </wgt>
   <wgt id='1003'> 0.17504E+04 </wgt>
   <wgt id='1004'> 0.16665E+04 </wgt>
   <wgt id='1005'> 0.14946E+04 </wgt>
   <wgt id='1006'> 0.18847E+04 </wgt>
   <wgt id='1007'> 0.13999E+04 </wgt>
   <wgt id='1008'> 0.12554E+04 </wgt>
   <wgt id='1009'> 0.15830E+04 </wgt>
  </rwgt>
  </event>
  <event>
  4      0 0.15478455E+04 0.30000000E+02 0.75467711E-02 0.15290405E+00
       -2 -1    0    0    0  501 0.00000000E+00 0.00000000E+00 0.81517058E+00 0.87573003E+00 0.32000000E+00 0.0000E+00 0.9000E+01
        2 -1    0    0  501    0 0.00000000E+00 0.00000000E+00 -.29081493E+03 0.29081510E+03 0.32000000E+00 0.0000E+00 0.9000E+01
      -11  1    1    2    0    0 -.15622848E+02 0.12114290E+01 -.13926755E+03 0.14014632E+03 0.51099893E-03 0.0000E+00 0.9000E+01
       11  1    1    2    0    0 0.15622848E+02 -.12114290E+01 -.15073221E+03 0.15154452E+03 0.51099893E-03 0.0000E+00 0.9000E+01
#aMCatNLO 1  0  0  1  2 0.81310945E+01 0.00000000E+00  9  5  0 0.00000000E+00 0.00000000E+00 0.00000000E+00 0.00000000E+00 0.00000000E+00
  <rwgt>
   <wgt id='1001'> 0.15479E+04 </wgt>
   <wgt id='1002'> 0.16583E+04 </wgt>
   <wgt id='1003'> 0.13985E+04 </wgt>
   <wgt id='1004'> 0.18792E+04 </wgt>
   <wgt id='1005'> 0.20198E+04 </wgt>
   <wgt id='1006'> 0.16892E+04 </wgt>
   <wgt id='1007'> 0.12019E+04 </wgt>
   <wgt id='1008'> 0.12838E+04 </wgt>
   <wgt id='1009'> 0.10913E+04 </wgt>
  </rwgt>
  </event>
  <event>
  5      0 -.15478455E+04 0.23281094E+02 0.75467711E-02 0.13022089E+00
       -2 -1    0    0    0  501 0.00000000E+00 0.00000000E+00 0.89895777E+03 0.89895783E+03 0.32000000E+00 0.0000E+00 0.9000E+01
        2 -1    0    0  501    0 0.00000000E+00 0.00000000E+00 -.22805614E+01 0.23029026E+01 0.32000000E+00 0.0000E+00 0.9000E+01
       23  2    1    2    0    0 0.00000000E+00 0.00000000E+00 0.89667721E+03 0.90126073E+03 0.90779327E+02 0.0000E+00 0.0000E+00
      -11  1    3    3    0    0 0.25089751E+02 0.20969056E+02 0.13579853E+03 0.13967977E+03 0.51099893E-03 0.0000E+00 0.9000E+01
       11  1    3    3    0    0 -.25089751E+02 -.20969056E+02 0.76087868E+03 0.76158096E+03 0.51099893E-03 0.0000E+00 0.9000E+01
#aMCatNLO 1  0  0  2  1 0.27745753E+02 0.00000000E+00  9  5  0 0.00000000E+00 0.00000000E+00 0.00000000E+00 0.00000000E+00 0.00000000E+00
  <rwgt>
   <wgt id='1001'> -.15479E+04 </wgt>
   <wgt id='1002'> -.13624E+04 </wgt>
   <wgt id='1003'> -.17883E+04 </wgt>
   <wgt id='1004'> -.15716E+04 </wgt>
   <wgt id='1005'> -.13828E+04 </wgt>
   <wgt id='1006'> -.18163E+04 </wgt>
   <wgt id='1007'> -.14993E+04 </wgt>
   <wgt id='1008'> -.13201E+04 </wgt>
   <wgt id='1009'> -.17316E+04 </wgt>
  </rwgt>
  </event>
  <event>
  6      0 0.15478455E+04 0.30000000E+02 0.75467711E-02 0.13498868E+00
       -2 -1    0    0    0  502 0.00000000E+00 0.00000000E+00 0.88253144E+01 0.88311140E+01 0.32000000E+00 0.0000E+00 0.9000E+01
        2 -1    0    0  501    0 0.00000000E+00 0.00000000E+00 -.10275585E+04 0.10275586E+04 0.32000000E+00 0.0000E+00 0.9000E+01
       23  2    1    2    0    0 -.36726115E+02 0.13053121E+02 -.96516339E+03 0.97013654E+03 0.90029694E+02 0.0000E+00 0.0000E+00
      -11  1    3    3    0    0 -.18155681E+02 0.12055162E+02 -.93087006E+03 0.93112514E+03 0.51099893E-03 0.0000E+00 0.9000E+01
       11  1    3    3    0    0 -.18570434E+02 0.99795870E+00 -.34293329E+02 0.39011401E+02 0.51099893E-03 0.0000E+00 0.9000E+01
       21  1    1    2  501  502 0.36726115E+02 -.13053121E+02 -.53569819E+02 0.66253147E+02 0.75000000E+00 0.0000E+00 0.9000E+01
#aMCatNLO 2  0  0  1  1 0.38976807E+02 0.00000000E+00  9  5  0 0.00000000E+00 0.00000000E+00 0.00000000E+00 0.00000000E+00 0.00000000E+00
  <rwgt>
   <wgt id='1001'> 0.15479E+04 </wgt>
   <wgt id='1002'> 0.13820E+04 </wgt>
   <wgt id='1003'> 0.17604E+04 </wgt>
   <wgt id='1004'> 0.16089E+04 </wgt>
   <wgt id='1005'> 0.14366E+04 </wgt>
   <wgt id='1006'> 0.18300E+04 </wgt>
   <wgt id='1007'> 0.14621E+04 </wgt>
   <wgt id='1008'> 0.13054E+04 </wgt>
   <wgt id='1009'> 0.16629E+04 </wgt>
  </rwgt>
  </event>
  <event>
  6      0 0.15478455E+04 0.30000000E+02 0.75467711E-02 0.13608726E+00
       21 -1    0    0  501  502 0.00000000E+00 0.00000000E+00 0.37854085E+02 0.37861514E+02 0.75000000E+00 0.0000E+00 0.9000E+01
       -4 -1    0    0    0  501 0.00000000E+00 0.00000000E+00 -.12647514E+03 0.12648463E+03 0.15500000E+01 0.0000E+00 0.9000E+01
       23  2    1    2    0    0 0.24156465E+02 0.74275605E+01 -.98862650E+02 0.13703321E+03 0.91463515E+02 0.0000E+00 0.0000E+00
      -11  1    3    3    0    0 -.35846503E-01 -.16478683E+02 0.12441863E+02 0.20648202E+02 0.51099893E-03 0.0000E+00 0.9000E+01
       11  1    3    3    0    0 0.24192312E+02 0.23906244E+02 -.11130451E+03 0.11638501E+03 0.51099893E-03 0.0000E+00 0.9000E+01
       -4  1    1    2    0  502 -.24156465E+02 -.74275605E+01 0.10241599E+02 0.27312933E+02 0.15500000E+01 0.0000E+00 0.9000E+01
#aMCatNLO 2  0  0  1  2 0.25272583E+02 0.00000000E+00  9  5  0 0.00000000E+00 0.00000000E+00 0.00000000E+00 0.00000000E+00 0.00000000E+00
  <rwgt>
   <wgt id='1001'> 0.15479E+04 </wgt>
   <wgt id='1002'> 0.13807E+04 </wgt>
   <wgt id='1003'> 0.17626E+04 </wgt>
   <wgt id='1004'> 0.17218E+04 </wgt>
   <wgt id='1005'> 0.15359E+04 </wgt>
   <wgt id='1006'> 0.19606E+04 </wgt>
   <wgt id='1007'> 0.13204E+04 </wgt>
   <wgt id='1008'> 0.11778E+04 </wgt>
   <wgt id='1009'> 0.15035E+04 </wgt>
  </rwgt>
  </event>
  <event>
  5      0 0.15478455E+04 0.40123256E+02 0.75467711E-02 0.13375658E+00
       -1 -1    0    0    0  501 0.00000000E+00 0.00000000E+00 0.33152828E+02 0.33154373E+02 0.32000000E+00 0.0000E+00 0.9000E+01
        1 -1    0    0  501    0 0.00000000E+00 0.00000000E+00 -.62981539E+02 0.62982352E+02 0.32000000E+00 0.0000E+00 0.9000E+01
       23  2    1    2    0    0 0.00000000E+00 0.00000000E+00 -.29828710E+02 0.96136724E+02 0.91392110E+02 0.0000E+00 0.0000E+00
      -11  1    3    3    0    0 0.37217262E+02 0.14991701E+02 0.80899874E+01 0.40930717E+02 0.51099893E-03 0.0000E+00 0.9000E+01
       11  1    3    3    0    0 -.37217262E+02 -.14991701E+02 -.37918698E+02 0.55206008E+02 0.51099893E-03 0.0000E+00 0.9000E+01
#aMCatNLO 1  0  0  1  1 0.33907200E+01 0.00000000E+00  9  5  0 0.00000000E+00 0.00000000E+00 0.00000000E+00 0.00000000E+00 0.00000000E+00
  <rwgt>
   <wgt id='1001'> 0.15479E+04 </wgt>
   <wgt id='1002'> 0.15188E+04 </wgt>
   <wgt id='1003'> 0.15846E+04 </wgt>
   <wgt id='1004'> 0.16864E+04 </wgt>
   <wgt id='1005'> 0.16574E+04 </wgt>
   <wgt id='1006'> 0.17233E+04 </wgt>
   <wgt id='1007'> 0.13783E+04 </wgt>
   <wgt id='1008'> 0.13503E+04 </wgt>
   <wgt id='1009'> 0.14137E+04 </wgt>
  </rwgt>
  </event>
  <event>
  6      0 0.15478455E+04 0.39027446E+02 0.75467711E-02 0.13257883E+00
       21 -1    0    0  502  501 0.00000000E+00 0.00000000E+00 0.37823298E+02 0.37830733E+02 0.75000000E+00 0.0000E+00 0.9000E+01
        4 -1    0    0  501    0 0.00000000E+00 0.00000000E+00 -.10727536E+03 0.10728656E+03 0.15500000E+01 0.0000E+00 0.9000E+01
       23  2    1    2    0    0 0.35447515E+01 -.89338534E+01 -.87006557E+02 0.12504388E+03 0.89294194E+02 0.0000E+00 0.0000E+00
      -11  1    3    3    0    0 -.67734313E+00 0.34687551E+02 -.94444776E+01 0.35956684E+02 0.51099893E-03 0.0000E+00 0.9000E+01
       11  1    3    3    0    0 0.42220946E+01 -.43621405E+02 -.77562079E+02 0.89087200E+02 0.51099893E-03 0.0000E+00 0.9000E+01
        4  1    1    2  502    0 -.35447515E+01 0.89338534E+01 0.17554493E+02 0.20073409E+02 0.15500000E+01 0.0000E+00 0.9000E+01
#aMCatNLO 2  0  0  1  2 0.96113995E+01 0.00000000E+00  9  5  0 0.00000000E+00 0.00000000E+00 0.00000000E+00 0.00000000E+00 0.00000000E+00
  <rwgt>
   <wgt id='1001'> 0.15479E+04 </wgt>
   <wgt id='1002'> 0.13848E+04 </wgt>
   <wgt id='1003'> 0.17559E+04 </wgt>
   <wgt id='1004'> 0.17081E+04 </wgt>
   <wgt id='1005'> 0.15281E+04 </wgt>
   <wgt id='1006'> 0.19377E+04 </wgt>
   <wgt id='1007'> 0.13379E+04 </wgt>
   <wgt id='1008'> 0.11969E+04 </wgt>
   <wgt id='1009'> 0.15178E+04 </wgt>
  </rwgt>
  </event>
  <event>
  5      0 0.15478455E+04 0.29005103E+02 0.75467711E-02 0.12837735E+00
       -1 -1    0    0    0  501 0.00000000E+00 0.00000000E+00 0.10359229E+03 0.10359278E+03 0.32000000E+00 0.0000E+00 0.9000E+01
        1 -1    0    0  501    0 0.00000000E+00 0.00000000E+00 -.21358841E+02 0.21361238E+02 0.32000000E+00 0.0000E+00 0.9000E+01
       23  2    1    2    0    0 0.00000000E+00 0.00000000E+00 0.82233448E+02 0.12495402E+03 0.94080644E+02 0.0000E+00 0.0000E+00
      -11  1    3    3    0    0 -.42262824E+02 0.15417816E+02 0.59372822E+02 0.74491525E+02 0.51099893E-03 0.0000E+00 0.9000E+01
       11  1    3    3    0    0 0.42262824E+02 -.15417816E+02 0.22860626E+02 0.50462497E+02 0.51099893E-03 0.0000E+00 0.9000E+01
#aMCatNLO 1  0  0  2  1 0.15509375E+02 0.00000000E+00  9  5  0 0.00000000E+00 0.00000000E+00 0.00000000E+00 0.00000000E+00 0.00000000E+00
  <rwgt>
   <wgt id='1001'> 0.15479E+04 </wgt>
   <wgt id='1002'> 0.14152E+04 </wgt>
   <wgt id='1003'> 0.17159E+04 </wgt>
   <wgt id='1004'> 0.17053E+04 </wgt>
   <wgt id='1005'> 0.15591E+04 </wgt>
   <wgt id='1006'> 0.18908E+04 </wgt>
   <wgt id='1007'> 0.13785E+04 </wgt>
   <wgt id='1008'> 0.12603E+04 </wgt>
   <wgt id='1009'> 0.15281E+04 </wgt>
  </rwgt>
  </event>
  <event>
  5      0 -.15478455E+04 0.21633352E+02 0.75467711E-02 0.13491776E+00
       -3 -1    0    0    0  501 0.00000000E+00 0.00000000E+00 0.12114142E+02 0.12124456E+02 0.50000000E+00 0.0000E+00 0.9000E+01
        3 -1    0    0  501    0 0.00000000E+00 0.00000000E+00 -.18291236E+03 0.18291304E+03 0.50000000E+00 0.0000E+00 0.9000E+01
       23  2    1    2    0    0 0.00000000E+00 0.00000000E+00 -.17079822E+03 0.19503750E+03 0.94167908E+02 0.0000E+00 0.0000E+00
      -11  1    3    3    0    0 0.12954240E+02 0.20376154E+02 -.16911883E+03 0.17083377E+03 0.51099893E-03 0.0000E+00 0.9000E+01
       11  1    3    3    0    0 -.12954240E+02 -.20376154E+02 -.16793898E+01 0.24203726E+02 0.51099893E-03 0.0000E+00 0.9000E+01
#aMCatNLO 1  0  0  1  2 0.28680629E+02 0.00000000E+00  9  5  0 0.00000000E+00 0.00000000E+00 0.00000000E+00 0.00000000E+00 0.00000000E+00
  <rwgt>
   <wgt id='1001'> -.15479E+04 </wgt>
   <wgt id='1002'> -.13361E+04 </wgt>
   <wgt id='1003'> -.18264E+04 </wgt>
   <wgt id='1004'> -.16442E+04 </wgt>
   <wgt id='1005'> -.14164E+04 </wgt>
   <wgt id='1006'> -.19439E+04 </wgt>
   <wgt id='1007'> -.14157E+04 </wgt>
   <wgt id='1008'> -.12249E+04 </wgt>
   <wgt id='1009'> -.16668E+04 </wgt>
  </rwgt>
  </event>
  <event>
  5      0 0.15478455E+04 0.30727993E+02 0.75467711E-02 0.13591587E+00
       -1 -1    0    0    0  501 0.00000000E+00 0.00000000E+00 0.20190738E+01 0.20442747E+01 0.32000000E+00 0.0000E+00 0.9000E+01
        1 -1    0    0  501    0 0.00000000E+00 0.00000000E+00 -.10325105E+04 0.10325106E+04 0.32000000E+00 0.0000E+00 0.9000E+01
       23  2    1    2    0    0 0.00000000E+00 0.00000000E+00 -.10304914E+04 0.10345548E+04 0.91602975E+02 0.0000E+00 0.0000E+00
      -11  1    3    3    0    0 -.13677336E+02 0.31471272E+02 -.17263530E+03 0.17601266E+03 0.51099893E-03 0.0000E+00 0.9000E+01
       11  1    3    3    0    0 0.13677336E+02 -.31471272E+02 -.85785614E+03 0.85854218E+03 0.51099893E-03 0.0000E+00 0.9000E+01
#aMCatNLO 1  0  0  1  2 0.74173745E+01 0.00000000E+00  9  5  0 0.00000000E+00 0.00000000E+00 0.00000000E+00 0.00000000E+00 0.00000000E+00
  <rwgt>
   <wgt id='1001'> 0.15479E+04 </wgt>
   <wgt id='1002'> 0.15255E+04 </wgt>
   <wgt id='1003'> 0.15684E+04 </wgt>
   <wgt id='1004'> 0.13635E+04 </wgt>
   <wgt id='1005'> 0.13720E+04 </wgt>
   <wgt id='1006'> 0.13437E+04 </wgt>
   <wgt id='1007'> 0.16902E+04 </wgt>
   <wgt id='1008'> 0.16390E+04 </wgt>
   <wgt id='1009'> 0.17486E+04 </wgt>
  </rwgt>
  </event>
  <event>
  6      0 0.15478455E+04 0.34995709E+02 0.75467711E-02 0.12875440E+00
       21 -1    0    0  501  502 0.00000000E+00 0.00000000E+00 0.12309909E+03 0.12310138E+03 0.75000000E+00 0.0000E+00 0.9000E+01
       -2 -1    0    0    0  501 0.00000000E+00 0.00000000E+00 -.43480661E+02 0.43481838E+02 0.32000000E+00 0.0000E+00 0.9000E+01
       23  2    1    2    0    0 -.89088086E+01 -.28990624E+02 0.24050028E+02 0.10327624E+03 0.95748395E+02 0.0000E+00 0.0000E+00
      -11  1    3    3    0    0 -.33268388E+02 -.36230419E+02 -.19452868E+02 0.52894641E+02 0.51099893E-03 0.0000E+00 0.9000E+01
       11  1    3    3    0    0 0.24359580E+02 0.72397955E+01 0.43502896E+02 0.50381601E+02 0.51099893E-03 0.0000E+00 0.9000E+01
       -2  1    1    2    0  502 0.89088086E+01 0.28990624E+02 0.55568402E+02 0.63306973E+02 0.32000000E+00 0.0000E+00 0.9000E+01
#aMCatNLO 2  0  0  1  2 0.30328586E+02 0.00000000E+00  9  5  0 0.00000000E+00 0.00000000E+00 0.00000000E+00 0.00000000E+00 0.00000000E+00
  <rwgt>
   <wgt id='1001'> 0.15479E+04 </wgt>
   <wgt id='1002'> 0.13892E+04 </wgt>
   <wgt id='1003'> 0.17488E+04 </wgt>
   <wgt id='1004'> 0.15830E+04 </wgt>
   <wgt id='1005'> 0.14207E+04 </wgt>
   <wgt id='1006'> 0.17884E+04 </wgt>
   <wgt id='1007'> 0.14865E+04 </wgt>
   <wgt id='1008'> 0.13342E+04 </wgt>
   <wgt id='1009'> 0.16794E+04 </wgt>
  </rwgt>
  </event>
  <event>
  6      0 0.15478455E+04 0.42471602E+02 0.75467711E-02 0.12705991E+00
        1 -1    0    0  501    0 0.00000000E+00 0.00000000E+00 0.77452369E+03 0.77452376E+03 0.32000000E+00 0.0000E+00 0.9000E+01
       21 -1    0    0  502  501 0.00000000E+00 0.00000000E+00 -.60263454E+01 0.60728361E+01 0.75000000E+00 0.0000E+00 0.9000E+01
       23  2    1    2    0    0 0.25253872E+02 0.21194445E+00 0.72225772E+03 0.72790876E+03 0.86931804E+02 0.0000E+00 0.0000E+00
      -11  1    3    3    0    0 0.51423413E+02 -.20260118E+02 0.52142754E+03 0.52434867E+03 0.51099893E-03 0.0000E+00 0.9000E+01
       11  1    3    3    0    0 -.26169542E+02 0.20472063E+02 0.20083018E+03 0.20356009E+03 0.51099893E-03 0.0000E+00 0.9000E+01
        1  1    1    2  502    0 -.25253872E+02 -.21194445E+00 0.46239628E+02 0.52687841E+02 0.32000000E+00 0.0000E+00 0.9000E+01
#aMCatNLO 2  0  0  2  1 0.25254761E+02 0.00000000E+00  9  5  0 0.00000000E+00 0.00000000E+00 0.00000000E+00 0.00000000E+00 0.00000000E+00
  <rwgt>
   <wgt id='1001'> 0.15478E+04 </wgt>
   <wgt id='1002'> 0.13911E+04 </wgt>
   <wgt id='1003'> 0.17456E+04 </wgt>
   <wgt id='1004'> 0.16087E+04 </wgt>
   <wgt id='1005'> 0.14459E+04 </wgt>
   <wgt id='1006'> 0.18143E+04 </wgt>
   <wgt id='1007'> 0.14548E+04 </wgt>
   <wgt id='1008'> 0.13075E+04 </wgt>
   <wgt id='1009'> 0.16406E+04 </wgt>
  </rwgt>
  </event>
  <event>
  5      0 0.15478455E+04 0.30000000E+02 0.75467711E-02 0.10721357E+00
        2 -1    0    0  501    0 0.00000000E+00 0.00000000E+00 0.56240840E+03 0.56240849E+03 0.32000000E+00 0.0000E+00 0.9000E+01
       -2 -1    0    0    0  501 0.00000000E+00 0.00000000E+00 -.34287717E+01 0.34436718E+01 0.32000000E+00 0.0000E+00 0.9000E+01
       23  2    1    2    0    0 0.00000000E+00 0.00000000E+00 0.55897963E+03 0.56585216E+03 0.87922950E+02 0.0000E+00 0.0000E+00
      -11  1    3    3    0    0 0.34842471E+01 -.11500008E+02 0.55164169E+03 0.55177255E+03 0.51099893E-03 0.0000E+00 0.9000E+01
       11  1    3    3    0    0 -.34842471E+01 0.11500008E+02 0.73379335E+01 0.14079610E+02 0.51099893E-03 0.0000E+00 0.9000E+01
#aMCatNLO 1  0  0  1  2 0.17814129E+03 0.00000000E+00  9  5  0 0.00000000E+00 0.00000000E+00 0.00000000E+00 0.00000000E+00 0.00000000E+00
  <rwgt>
   <wgt id='1001'> 0.15479E+04 </wgt>
   <wgt id='1002'> 0.15126E+04 </wgt>
   <wgt id='1003'> 0.15964E+04 </wgt>
   <wgt id='1004'> 0.17860E+04 </wgt>
   <wgt id='1005'> 0.17473E+04 </wgt>
   <wgt id='1006'> 0.18396E+04 </wgt>
   <wgt id='1007'> 0.12729E+04 </wgt>
   <wgt id='1008'> 0.12425E+04 </wgt>
   <wgt id='1009'> 0.13147E+04 </wgt>
  </rwgt>
  </event>
  <event>
  6      0 0.15478455E+04 0.30000000E+02 0.75467711E-02 0.11000917E+00
       -2 -1    0    0    0  502 0.00000000E+00 0.00000000E+00 0.22449964E+02 0.22452244E+02 0.32000000E+00 0.0000E+00 0.9000E+01
        2 -1    0    0  501    0 0.00000000E+00 0.00000000E+00 -.12972706E+04 0.12972707E+04 0.32000000E+00 0.0000E+00 0.9000E+01
       23  2    1    2    0    0 0.11832477E+03 0.86166702E+02 -.92153136E+03 0.93731038E+03 0.88911405E+02 0.0000E+00 0.0000E+00
      -11  1    3    3    0    0 0.53179783E+02 0.56186559E+02 -.70456985E+03 0.70880441E+03 0.51099893E-03 0.0000E+00 0.9000E+01
       11  1    3    3    0    0 0.65144992E+02 0.29980143E+02 -.21696152E+03 0.22850597E+03 0.51099893E-03 0.0000E+00 0.9000E+01
       21  1    1    2  501  502 -.11832477E+03 -.86166702E+02 -.35328929E+03 0.38241252E+03 0.75000000E+00 0.0000E+00 0.9000E+01
#aMCatNLO 2  0  0  1  1 0.14637436E+03 0.00000000E+00  9  5  0 0.00000000E+00 0.00000000E+00 0.00000000E+00 0.00000000E+00 0.00000000E+00
  <rwgt>
   <wgt id='1001'> 0.15479E+04 </wgt>
   <wgt id='1002'> 0.14204E+04 </wgt>
   <wgt id='1003'> 0.17148E+04 </wgt>
   <wgt id='1004'> 0.15176E+04 </wgt>
   <wgt id='1005'> 0.13926E+04 </wgt>
   <wgt id='1006'> 0.16812E+04 </wgt>
   <wgt id='1007'> 0.15714E+04 </wgt>
   <wgt id='1008'> 0.14420E+04 </wgt>
   <wgt id='1009'> 0.17409E+04 </wgt>
  </rwgt>
  </event>
  <event>
  6      0 0.15478455E+04 0.32011462E+02 0.75467711E-02 0.13653920E+00
       21 -1    0    0  502  501 0.00000000E+00 0.00000000E+00 0.98872055E+01 0.99156105E+01 0.75000000E+00 0.0000E+00 0.9000E+01
        2 -1    0    0  501    0 0.00000000E+00 0.00000000E+00 -.26260013E+03 0.26260032E+03 0.32000000E+00 0.0000E+00 0.9000E+01
       23  2    1    2    0    0 0.51642631E+00 -.98532537E+01 -.21242860E+03 0.23103964E+03 0.90310879E+02 0.0000E+00 0.0000E+00
      -11  1    3    3    0    0 -.12196298E+02 -.34583234E+02 -.32576602E+02 0.49050839E+02 0.51099893E-03 0.0000E+00 0.9000E+01
       11  1    3    3    0    0 0.12712724E+02 0.24729980E+02 -.17985199E+03 0.18198880E+03 0.51099893E-03 0.0000E+00 0.9000E+01
        2  1    1    2  502    0 -.51642631E+00 0.98532537E+01 -.40284326E+02 0.41476289E+02 0.32000000E+00 0.0000E+00 0.9000E+01
#aMCatNLO 2  0  0  1  1 0.98667778E+01 0.00000000E+00  9  5  0 0.00000000E+00 0.00000000E+00 0.00000000E+00 0.00000000E+00 0.00000000E+00
  <rwgt>
   <wgt id='1001'> 0.15479E+04 </wgt>
   <wgt id='1002'> 0.13802E+04 </wgt>
   <wgt id='1003'> 0.17634E+04 </wgt>
   <wgt id='1004'> 0.16966E+04 </wgt>
   <wgt id='1005'> 0.15129E+04 </wgt>
   <wgt id='1006'> 0.19329E+04 </wgt>
   <wgt id='1007'> 0.13624E+04 </wgt>
   <wgt id='1008'> 0.12148E+04 </wgt>
   <wgt id='1009'> 0.15521E+04 </wgt>
  </rwgt>
  </event>
  <event>
  4      0 0.15478455E+04 0.24163552E+02 0.75467711E-02 0.18596680E+00
       -2 -1    0    0    0  501 0.00000000E+00 0.00000000E+00 0.66122048E+02 0.66122823E+02 0.32000000E+00 0.0000E+00 0.9000E+01
        2 -1    0    0  501    0 0.00000000E+00 0.00000000E+00 -.68506849E+01 0.68581545E+01 0.32000000E+00 0.0000E+00 0.9000E+01
      -11  1    1    2    0    0 0.47937728E+01 -.60937496E+01 -.43491020E+01 0.88898104E+01 0.51099893E-03 0.0000E+00 0.9000E+01
       11  1    1    2    0    0 -.47937728E+01 0.60937496E+01 0.63620465E+02 0.64091167E+02 0.51099893E-03 0.0000E+00 0.9000E+01
#aMCatNLO 1  0  0  1  2 0.10676028E+01 0.00000000E+00  9  5  0 0.00000000E+00 0.00000000E+00 0.00000000E+00 0.00000000E+00 0.00000000E+00
  <rwgt>
   <wgt id='1001'> 0.15479E+04 </wgt>
   <wgt id='1002'> 0.14802E+04 </wgt>
   <wgt id='1003'> 0.16282E+04 </wgt>
   <wgt id='1004'> 0.19192E+04 </wgt>
   <wgt id='1005'> 0.18453E+04 </wgt>
   <wgt id='1006'> 0.20031E+04 </wgt>
   <wgt id='1007'> 0.11375E+04 </wgt>
   <wgt id='1008'> 0.10812E+04 </wgt>
   <wgt id='1009'> 0.12070E+04 </wgt>
  </rwgt>
  </event>
  <event>
  5      0 0.15478455E+04 0.30803940E+02 0.75467711E-02 0.13287109E+00
        3 -1    0    0  501    0 0.00000000E+00 0.00000000E+00 0.93192868E+01 0.93326902E+01 0.50000000E+00 0.0000E+00 0.9000E+01
       -3 -1    0    0    0  501 0.00000000E+00 0.00000000E+00 -.22846257E+03 0.22846311E+03 0.50000000E+00 0.0000E+00 0.9000E+01
       23  2    1    2    0    0 0.00000000E+00 0.00000000E+00 -.21914328E+03 0.23779580E+03 0.92320459E+02 0.0000E+00 0.0000E+00
      -11  1    3    3    0    0 -.13856785E+02 0.27511311E+02 -.21020598E+02 0.37292737E+02 0.51099893E-03 0.0000E+00 0.9000E+01
       11  1    3    3    0    0 0.13856785E+02 -.27511311E+02 -.19812268E+03 0.20050307E+03 0.51099893E-03 0.0000E+00 0.9000E+01
#aMCatNLO 1  0  0  2  1 0.23432210E+02 0.00000000E+00  9  5  0 0.00000000E+00 0.00000000E+00 0.00000000E+00 0.00000000E+00 0.00000000E+00
  <rwgt>
   <wgt id='1001'> 0.15478E+04 </wgt>
   <wgt id='1002'> 0.17115E+04 </wgt>
   <wgt id='1003'> 0.13353E+04 </wgt>
   <wgt id='1004'> 0.17238E+04 </wgt>
   <wgt id='1005'> 0.19132E+04 </wgt>
   <wgt id='1006'> 0.14780E+04 </wgt>
   <wgt id='1007'> 0.13305E+04 </wgt>
   <wgt id='1008'> 0.14660E+04 </wgt>
   <wgt id='1009'> 0.11547E+04 </wgt>
  </rwgt>
  </event>
  <event>
  6      0 0.15478455E+04 0.30000000E+02 0.75467711E-02 0.13481148E+00
       -2 -1    0    0    0  501 0.00000000E+00 0.00000000E+00 0.29171776E+01 0.29346764E+01 0.32000000E+00 0.0000E+00 0.9000E+01
        2 -1    0    0  502    0 0.00000000E+00 0.00000000E+00 -.18736334E+04 0.18736334E+04 0.32000000E+00 0.0000E+00 0.9000E+01
       23  2    1    2    0    0 -.10522855E+02 0.20345691E+02 -.17968686E+04 0.17992460E+04 0.89580344E+02 0.0000E+00 0.0000E+00
      -11  1    3    3    0    0 -.31838263E+02 0.14346007E+02 -.16761197E+04 0.16764835E+04 0.51099893E-03 0.0000E+00 0.9000E+01
       11  1    3    3    0    0 0.21315408E+02 0.59996841E+01 -.12074890E+03 0.12276254E+03 0.51099893E-03 0.0000E+00 0.9000E+01
       21  1    1    2  502  501 0.10522855E+02 -.20345691E+02 -.73847618E+02 0.77322123E+02 0.75000000E+00 0.0000E+00 0.9000E+01
#aMCatNLO 2  0  0  2  2 0.22905842E+02 0.00000000E+00  9  5  0 0.00000000E+00 0.00000000E+00 0.00000000E+00 0.00000000E+00 0.00000000E+00
  <rwgt>
   <wgt id='1001'> 0.15479E+04 </wgt>
   <wgt id='1002'> 0.13822E+04 </wgt>
   <wgt id='1003'> 0.17601E+04 </wgt>
   <wgt id='1004'> 0.15628E+04 </wgt>
   <wgt id='1005'> 0.13956E+04 </wgt>
   <wgt id='1006'> 0.17771E+04 </wgt>
   <wgt id='1007'> 0.15108E+04 </wgt>
   <wgt id='1008'> 0.13490E+04 </wgt>
   <wgt id='1009'> 0.17179E+04 </wgt>
  </rwgt>
  </event>
  <event>
  4      0 0.15478455E+04 0.30000000E+02 0.75467711E-02 0.13244270E+00
       -2 -1    0    0    0  501 0.00000000E+00 0.00000000E+00 0.54750624E+00 0.63416329E+00 0.32000000E+00 0.0000E+00 0.9000E+01
        2 -1    0    0  501    0 0.00000000E+00 0.00000000E+00 -.39557078E+03 0.39557091E+03 0.32000000E+00 0.0000E+00 0.9000E+01
      -11  1    1    2    0    0 0.67354517E+00 -.70925155E+01 -.22230317E+02 0.23344045E+02 0.51099893E-03 0.0000E+00 0.9000E+01
       11  1    1    2    0    0 -.67354517E+00 0.70925155E+01 -.37279295E+03 0.37286102E+03 0.51099893E-03 0.0000E+00 0.9000E+01
#aMCatNLO 1  0  0  1  1 0.43864153E+02 0.00000000E+00  9  5  0 0.00000000E+00 0.00000000E+00 0.00000000E+00 0.00000000E+00 0.00000000E+00
  <rwgt>
   <wgt id='1001'> 0.15479E+04 </wgt>
   <wgt id='1002'> 0.14074E+04 </wgt>
   <wgt id='1003'> 0.17600E+04 </wgt>
   <wgt id='1004'> 0.14550E+04 </wgt>
   <wgt id='1005'> 0.13573E+04 </wgt>
   <wgt id='1006'> 0.16026E+04 </wgt>
   <wgt id='1007'> 0.13783E+04 </wgt>
   <wgt id='1008'> 0.12357E+04 </wgt>
   <wgt id='1009'> 0.15940E+04 </wgt>
  </rwgt>
  </event>
  <event>
  5      0 0.15478455E+04 0.45733315E+02 0.75467711E-02 0.13101088E+00
        2 -1    0    0  501    0 0.00000000E+00 0.00000000E+00 0.47439237E+03 0.47439248E+03 0.32000000E+00 0.0000E+00 0.9000E+01
       -2 -1    0    0    0  501 0.00000000E+00 0.00000000E+00 -.44608772E+01 0.44723401E+01 0.32000000E+00 0.0000E+00 0.9000E+01
       23  2    1    2    0    0 0.00000000E+00 0.00000000E+00 0.46993149E+03 0.47886482E+03 0.92064684E+02 0.0000E+00 0.0000E+00
      -11  1    3    3    0    0 -.43803164E+02 -.13146059E+02 0.26221253E+03 0.26617090E+03 0.51099893E-03 0.0000E+00 0.9000E+01
       11  1    3    3    0    0 0.43803164E+02 0.13146059E+02 0.20771896E+03 0.21269392E+03 0.51099893E-03 0.0000E+00 0.9000E+01
#aMCatNLO 1  0  0  2  2 0.30291325E+01 0.00000000E+00  9  5  0 0.00000000E+00 0.00000000E+00 0.00000000E+00 0.00000000E+00 0.00000000E+00
  <rwgt>
   <wgt id='1001'> 0.15479E+04 </wgt>
   <wgt id='1002'> 0.15106E+04 </wgt>
   <wgt id='1003'> 0.15950E+04 </wgt>
   <wgt id='1004'> 0.16830E+04 </wgt>
   <wgt id='1005'> 0.16439E+04 </wgt>
   <wgt id='1006'> 0.17326E+04 </wgt>
   <wgt id='1007'> 0.13852E+04 </wgt>
   <wgt id='1008'> 0.13510E+04 </wgt>
   <wgt id='1009'> 0.14285E+04 </wgt>
  </rwgt>
  </event>
  <event>
  5      0 -.15478455E+04 0.30000000E+02 0.75467711E-02 0.25882147E+00
       -2 -1    0    0    0  501 0.00000000E+00 0.00000000E+00 0.43089064E+01 0.43207725E+01 0.32000000E+00 0.0000E+00 0.9000E+01
        2 -1    0    0  501    0 0.00000000E+00 0.00000000E+00 -.45573194E+03 0.45573205E+03 0.32000000E+00 0.0000E+00 0.9000E+01
       23  2    1    2    0    0 0.00000000E+00 0.00000000E+00 -.45142303E+03 0.46005282E+03 0.88689607E+02 0.0000E+00 0.0000E+00
      -11  1    3    3    0    0 0.14998550E+01 0.23545910E+01 0.38586120E+01 0.47626202E+01 0.51099893E-03 0.0000E+00 0.9000E+01
       11  1    3    3    0    0 -.14998550E+01 -.23545910E+01 -.45528164E+03 0.45529020E+03 0.51099893E-03 0.0000E+00 0.9000E+01
#aMCatNLO 1  0  0  2  2 0.22905842E+02 0.00000000E+00  9  5  0 0.00000000E+00 0.00000000E+00 0.00000000E+00 0.00000000E+00 0.00000000E+00
  <rwgt>
   <wgt id='1001'> -.15479E+04 </wgt>
   <wgt id='1002'> -.12315E+04 </wgt>
   <wgt id='1003'> -.21358E+04 </wgt>
   <wgt id='1004'> -.20919E+04 </wgt>
   <wgt id='1005'> -.16644E+04 </wgt>
   <wgt id='1006'> -.28865E+04 </wgt>
   <wgt id='1007'> -.10080E+04 </wgt>
   <wgt id='1008'> -.80195E+03 </wgt>
   <wgt id='1009'> -.13909E+04 </wgt>
  </rwgt>
  </event>
  <event>
  4      0 0.15478455E+04 0.30000000E+02 0.75467711E-02 0.15569541E+00
        2 -1    0    0  501    0 0.00000000E+00 0.00000000E+00 0.82679184E+01 0.82741087E+01 0.32000000E+00 0.0000E+00 0.9000E+01
       -2 -1    0    0    0  501 0.00000000E+00 0.00000000E+00 -.32962018E+02 0.32963571E+02 0.32000000E+00 0.0000E+00 0.9000E+01
      -11  1    1    2    0    0 -.78941547E+00 -.15359093E+02 -.19855640E+02 0.25115162E+02 0.51099893E-03 0.0000E+00 0.9000E+01
       11  1    1    2    0    0 0.78941547E+00 0.15359093E+02 -.48384596E+01 0.16122518E+02 0.51099893E-03 0.0000E+00 0.9000E+01
#aMCatNLO 1  0  0  2  2 0.57771611E+01 0.00000000E+00  9  5  0 0.00000000E+00 0.00000000E+00 0.00000000E+00 0.00000000E+00 0.00000000E+00
  <rwgt>
   <wgt id='1001'> 0.15478E+04 </wgt>
   <wgt id='1002'> 0.16005E+04 </wgt>
   <wgt id='1003'> 0.14757E+04 </wgt>
   <wgt id='1004'> 0.18924E+04 </wgt>
   <wgt id='1005'> 0.19643E+04 </wgt>
   <wgt id='1006'> 0.17939E+04 </wgt>
   <wgt id='1007'> 0.11823E+04 </wgt>
   <wgt id='1008'> 0.12176E+04 </wgt>
   <wgt id='1009'> 0.11340E+04 </wgt>
  </rwgt>
  </event>
  <event>
  5      0 0.15478455E+04 0.39178540E+02 0.75467711E-02 0.12577228E+00
       -2 -1    0    0    0  501 0.00000000E+00 0.00000000E+00 0.16459949E+01 0.16768122E+01 0.32000000E+00 0.0000E+00 0.9000E+01
        2 -1    0    0  501    0 0.00000000E+00 0.00000000E+00 -.12713667E+04 0.12713667E+04 0.32000000E+00 0.0000E+00 0.9000E+01
       23  2    1    2    0    0 0.00000000E+00 0.00000000E+00 -.12697207E+04 0.12730435E+04 0.91919625E+02 0.0000E+00 0.0000E+00
      -11  1    3    3    0    0 -.70922500E+01 -.38531260E+02 -.30208340E+03 0.30461343E+03 0.51099893E-03 0.0000E+00 0.9000E+01
       11  1    3    3    0    0 0.70922500E+01 0.38531260E+02 -.96763730E+03 0.96843012E+03 0.51099893E-03 0.0000E+00 0.9000E+01
#aMCatNLO 1  0  0  2  2 0.35220139E+02 0.00000000E+00  9  5  0 0.00000000E+00 0.00000000E+00 0.00000000E+00 0.00000000E+00 0.00000000E+00
  <rwgt>
   <wgt id='1001'> 0.15479E+04 </wgt>
   <wgt id='1002'> 0.14712E+04 </wgt>
   <wgt id='1003'> 0.16462E+04 </wgt>
   <wgt id='1004'> 0.21541E+04 </wgt>
   <wgt id='1005'> 0.20187E+04 </wgt>
   <wgt id='1006'> 0.23278E+04 </wgt>
   <wgt id='1007'> 0.99783E+03 </wgt>
   <wgt id='1008'> 0.97238E+03 </wgt>
   <wgt id='1009'> 0.10304E+04 </wgt>
  </rwgt>
  </event>
  <event>
  5      0 0.15478455E+04 0.30000000E+02 0.75467711E-02 0.13057847E+00
       -2 -1    0    0    0  501 0.00000000E+00 0.00000000E+00 0.18684035E+03 0.18684062E+03 0.32000000E+00 0.0000E+00 0.9000E+01
        2 -1    0    0  501    0 0.00000000E+00 0.00000000E+00 -.12366579E+02 0.12370718E+02 0.32000000E+00 0.0000E+00 0.9000E+01
       23  2    1    2    0    0 0.00000000E+00 0.00000000E+00 0.17447377E+03 0.19921134E+03 0.96146045E+02 0.0000E+00 0.0000E+00
      -11  1    3    3    0    0 0.15748041E+02 0.24963085E+02 0.16585862E+03 0.16846435E+03 0.51099893E-03 0.0000E+00 0.9000E+01
       11  1    3    3    0    0 -.15748041E+02 -.24963085E+02 0.86151493E+01 0.30746987E+02 0.51099893E-03 0.0000E+00 0.9000E+01
#aMCatNLO 1  0  0  1  2 0.30633808E+02 0.00000000E+00  9  5  0 0.00000000E+00 0.00000000E+00 0.00000000E+00 0.00000000E+00 0.00000000E+00
  <rwgt>
   <wgt id='1001'> 0.15479E+04 </wgt>
   <wgt id='1002'> 0.16445E+04 </wgt>
   <wgt id='1003'> 0.14220E+04 </wgt>
   <wgt id='1004'> 0.16779E+04 </wgt>
   <wgt id='1005'> 0.17871E+04 </wgt>
   <wgt id='1006'> 0.15358E+04 </wgt>
   <wgt id='1007'> 0.13836E+04 </wgt>
   <wgt id='1008'> 0.14664E+04 </wgt>
   <wgt id='1009'> 0.12757E+04 </wgt>
  </rwgt>
  </event>
  <event>
  6      0 0.15478455E+04 0.42066969E+02 0.75467711E-02 0.13012024E+00
       -2 -1    0    0    0  501 0.00000000E+00 0.00000000E+00 0.10975392E+02 0.10980056E+02 0.32000000E+00 0.0000E+00 0.9000E+01
       21 -1    0    0  501  502 0.00000000E+00 0.00000000E+00 -.26364140E+03 0.26364246E+03 0.75000000E+00 0.0000E+00 0.9000E+01
       23  2    1    2    0    0 -.12878011E+02 -.36436779E+01 -.20365272E+03 0.22381382E+03 0.91864445E+02 0.0000E+00 0.0000E+00
      -11  1    3    3    0    0 0.32782168E+02 -.17775209E+02 -.13572826E+03 0.14075791E+03 0.51099893E-03 0.0000E+00 0.9000E+01
       11  1    3    3    0    0 -.45660179E+02 0.14131531E+02 -.67924465E+02 0.83055915E+02 0.51099893E-03 0.0000E+00 0.9000E+01
       -2  1    1    2    0  502 0.12878011E+02 0.36436779E+01 -.49013280E+02 0.50808696E+02 0.32000000E+00 0.0000E+00 0.9000E+01
#aMCatNLO 2  0  0  2  1 0.13383555E+02 0.00000000E+00  9  5  0 0.00000000E+00 0.00000000E+00 0.00000000E+00 0.00000000E+00 0.00000000E+00
  <rwgt>
   <wgt id='1001'> 0.15479E+04 </wgt>
   <wgt id='1002'> 0.13876E+04 </wgt>
   <wgt id='1003'> 0.17513E+04 </wgt>
   <wgt id='1004'> 0.15817E+04 </wgt>
   <wgt id='1005'> 0.14179E+04 </wgt>
   <wgt id='1006'> 0.17896E+04 </wgt>
   <wgt id='1007'> 0.14903E+04 </wgt>
   <wgt id='1008'> 0.13360E+04 </wgt>
   <wgt id='1009'> 0.16862E+04 </wgt>
  </rwgt>
  </event>
  <event>
  5      0 0.15478455E+04 0.32180500E+02 0.75467711E-02 0.12658562E+00
        2 -1    0    0  501    0 0.00000000E+00 0.00000000E+00 0.27365772E+03 0.27365790E+03 0.32000000E+00 0.0000E+00 0.9000E+01
       -2 -1    0    0    0  501 0.00000000E+00 0.00000000E+00 -.76643268E+01 0.76710042E+01 0.32000000E+00 0.0000E+00 0.9000E+01
       23  2    1    2    0    0 0.00000000E+00 0.00000000E+00 0.26599339E+03 0.28132891E+03 0.91615888E+02 0.0000E+00 0.0000E+00
      -11  1    3    3    0    0 -.26745832E+02 -.17895392E+02 0.32889361E+02 0.46014070E+02 0.51099893E-03 0.0000E+00 0.9000E+01
       11  1    3    3    0    0 0.26745832E+02 0.17895392E+02 0.23310403E+03 0.23531484E+03 0.51099893E-03 0.0000E+00 0.9000E+01
#aMCatNLO 1  0  0  1  2 0.40423311E+02 0.00000000E+00  9  5  0 0.00000000E+00 0.00000000E+00 0.00000000E+00 0.00000000E+00 0.00000000E+00
  <rwgt>
   <wgt id='1001'> 0.15479E+04 </wgt>
   <wgt id='1002'> 0.15443E+04 </wgt>
   <wgt id='1003'> 0.15525E+04 </wgt>
   <wgt id='1004'> 0.17083E+04 </wgt>
   <wgt id='1005'> 0.17061E+04 </wgt>
   <wgt id='1006'> 0.17111E+04 </wgt>
   <wgt id='1007'> 0.13600E+04 </wgt>
   <wgt id='1008'> 0.13556E+04 </wgt>
   <wgt id='1009'> 0.13658E+04 </wgt>
  </rwgt>
  </event>
  <event>
  5      0 0.15478455E+04 0.29907381E+02 0.75467711E-02 0.13342020E+00
        2 -1    0    0  501    0 0.00000000E+00 0.00000000E+00 0.13453554E+04 0.13453554E+04 0.32000000E+00 0.0000E+00 0.9000E+01
       -2 -1    0    0    0  501 0.00000000E+00 0.00000000E+00 -.15127742E+01 0.15462489E+01 0.32000000E+00 0.0000E+00 0.9000E+01
       23  2    1    2    0    0 0.00000000E+00 0.00000000E+00 0.13438426E+04 0.13469017E+04 0.90725693E+02 0.0000E+00 0.0000E+00
      -11  1    3    3    0    0 0.39521891E+02 -.10083381E+02 0.96665325E+03 0.96751339E+03 0.51099893E-03 0.0000E+00 0.9000E+01
       11  1    3    3    0    0 -.39521891E+02 0.10083381E+02 0.37718935E+03 0.37938827E+03 0.51099893E-03 0.0000E+00 0.9000E+01
#aMCatNLO 1  0  0  1  2 0.32876930E+01 0.00000000E+00  9  5  0 0.00000000E+00 0.00000000E+00 0.00000000E+00 0.00000000E+00 0.00000000E+00
  <rwgt>
   <wgt id='1001'> 0.15479E+04 </wgt>
   <wgt id='1002'> 0.14628E+04 </wgt>
   <wgt id='1003'> 0.16552E+04 </wgt>
   <wgt id='1004'> 0.21426E+04 </wgt>
   <wgt id='1005'> 0.19993E+04 </wgt>
   <wgt id='1006'> 0.23244E+04 </wgt>
   <wgt id='1007'> 0.10212E+04 </wgt>
   <wgt id='1008'> 0.98570E+03 </wgt>
   <wgt id='1009'> 0.10651E+04 </wgt>
  </rwgt>
  </event>
  <event>
  5      0 0.15478455E+04 0.27574517E+02 0.75467711E-02 0.13020192E+00
       -2 -1    0    0    0  501 0.00000000E+00 0.00000000E+00 0.12907067E+01 0.13297834E+01 0.32000000E+00 0.0000E+00 0.9000E+01
        2 -1    0    0  501    0 0.00000000E+00 0.00000000E+00 -.15459614E+04 0.15459615E+04 0.32000000E+00 0.0000E+00 0.9000E+01
       23  2    1    2    0    0 0.00000000E+00 0.00000000E+00 -.15446707E+04 0.15472913E+04 0.90014211E+02 0.0000E+00 0.0000E+00
      -11  1    3    3    0    0 0.42343723E+02 0.10075058E+02 -.96918369E+03 0.97016056E+03 0.51099893E-03 0.0000E+00 0.9000E+01
       11  1    3    3    0    0 -.42343723E+02 -.10075058E+02 -.57548705E+03 0.57713070E+03 0.51099893E-03 0.0000E+00 0.9000E+01
#aMCatNLO 1  0  0  2  1 0.10464175E+02 0.00000000E+00  9  5  0 0.00000000E+00 0.00000000E+00 0.00000000E+00 0.00000000E+00 0.00000000E+00
  <rwgt>
   <wgt id='1001'> 0.15479E+04 </wgt>
   <wgt id='1002'> 0.14542E+04 </wgt>
   <wgt id='1003'> 0.16670E+04 </wgt>
   <wgt id='1004'> 0.21257E+04 </wgt>
   <wgt id='1005'> 0.19747E+04 </wgt>
   <wgt id='1006'> 0.23179E+04 </wgt>
   <wgt id='1007'> 0.10219E+04 </wgt>
   <wgt id='1008'> 0.97887E+03 </wgt>
   <wgt id='1009'> 0.10765E+04 </wgt>
  </rwgt>
  </event>
  <event>
  5      0 0.15478455E+04 0.18346237E+02 0.75467711E-02 0.12614202E+00
       -1 -1    0    0    0  501 0.00000000E+00 0.00000000E+00 0.87524425E+01 0.87582903E+01 0.32000000E+00 0.0000E+00 0.9000E+01
        1 -1    0    0  501    0 0.00000000E+00 0.00000000E+00 -.22070910E+03 0.22070934E+03 0.32000000E+00 0.0000E+00 0.9000E+01
       23  2    1    2    0    0 0.00000000E+00 0.00000000E+00 -.21195666E+03 0.22946763E+03 0.87919083E+02 0.0000E+00 0.0000E+00
      -11  1    3    3    0    0 -.37133360E+02 -.23187761E+02 -.95576736E+02 0.10512598E+03 0.51099893E-03 0.0000E+00 0.9000E+01
       11  1    3    3    0    0 0.37133360E+02 0.23187761E+02 -.11637993E+03 0.12434165E+03 0.51099893E-03 0.0000E+00 0.9000E+01
#aMCatNLO 1  0  0  2  1 0.27249717E+02 0.00000000E+00  9  5  0 0.00000000E+00 0.00000000E+00 0.00000000E+00 0.00000000E+00 0.00000000E+00
  <rwgt>
   <wgt id='1001'> 0.15479E+04 </wgt>
   <wgt id='1002'> 0.15379E+04 </wgt>
   <wgt id='1003'> 0.15598E+04 </wgt>
   <wgt id='1004'> 0.21430E+04 </wgt>
   <wgt id='1005'> 0.20858E+04 </wgt>
   <wgt id='1006'> 0.22153E+04 </wgt>
   <wgt id='1007'> 0.10573E+04 </wgt>
   <wgt id='1008'> 0.10814E+04 </wgt>
   <wgt id='1009'> 0.10259E+04 </wgt>
  </rwgt>
  </event>
  <event>
  6      0 0.15478455E+04 0.32737795E+02 0.75467711E-02 0.13685764E+00
        1 -1    0    0  501    0 0.00000000E+00 0.00000000E+00 0.15436447E+02 0.15439763E+02 0.32000000E+00 0.0000E+00 0.9000E+01
       21 -1    0    0  502  501 0.00000000E+00 0.00000000E+00 -.16734993E+03 0.16735161E+03 0.75000000E+00 0.0000E+00 0.9000E+01
       23  2    1    2    0    0 -.68490592E+01 0.31914513E+01 -.12447388E+03 0.15432860E+03 0.90920166E+02 0.0000E+00 0.0000E+00
      -11  1    3    3    0    0 -.34091454E+02 -.10018813E+02 -.11817821E+03 0.12340459E+03 0.51099893E-03 0.0000E+00 0.9000E+01
       11  1    3    3    0    0 0.27242395E+02 0.13210264E+02 -.62956697E+01 0.30924013E+02 0.51099893E-03 0.0000E+00 0.9000E+01
        1  1    1    2  502    0 0.68490592E+01 -.31914513E+01 -.27439604E+02 0.28462770E+02 0.32000000E+00 0.0000E+00 0.9000E+01
#aMCatNLO 2  0  0  2  1 0.75561216E+01 0.00000000E+00  9  5  0 0.00000000E+00 0.00000000E+00 0.00000000E+00 0.00000000E+00 0.00000000E+00
  <rwgt>
   <wgt id='1001'> 0.15478E+04 </wgt>
   <wgt id='1002'> 0.13798E+04 </wgt>
   <wgt id='1003'> 0.17640E+04 </wgt>
   <wgt id='1004'> 0.16145E+04 </wgt>
   <wgt id='1005'> 0.14393E+04 </wgt>
   <wgt id='1006'> 0.18400E+04 </wgt>
   <wgt id='1007'> 0.14493E+04 </wgt>
   <wgt id='1008'> 0.12920E+04 </wgt>
   <wgt id='1009'> 0.16516E+04 </wgt>
  </rwgt>
  </event>
  <event>
  5      0 0.15478455E+04 0.44665720E+02 0.75467711E-02 0.12165422E+00
        2 -1    0    0  501    0 0.00000000E+00 0.00000000E+00 0.71059843E+01 0.71131858E+01 0.32000000E+00 0.0000E+00 0.9000E+01
       -2 -1    0    0    0  501 0.00000000E+00 0.00000000E+00 -.28455446E+03 0.28455464E+03 0.32000000E+00 0.0000E+00 0.9000E+01
       23  2    1    2    0    0 0.00000000E+00 0.00000000E+00 -.27744848E+03 0.29166783E+03 0.89958123E+02 0.0000E+00 0.0000E+00
      -11  1    3    3    0    0 -.17824942E+02 -.40954829E+02 -.15590806E+03 0.16217999E+03 0.51099893E-03 0.0000E+00 0.9000E+01
       11  1    3    3    0    0 0.17824942E+02 0.40954829E+02 -.12154042E+03 0.12948784E+03 0.51099893E-03 0.0000E+00 0.9000E+01
#aMCatNLO 1  0  0  2  2 0.48034051E+02 0.00000000E+00  9  5  0 0.00000000E+00 0.00000000E+00 0.00000000E+00 0.00000000E+00 0.00000000E+00
  <rwgt>
   <wgt id='1001'> 0.15479E+04 </wgt>
   <wgt id='1002'> 0.15533E+04 </wgt>
   <wgt id='1003'> 0.15409E+04 </wgt>
   <wgt id='1004'> 0.15227E+04 </wgt>
   <wgt id='1005'> 0.15447E+04 </wgt>
   <wgt id='1006'> 0.14947E+04 </wgt>
   <wgt id='1007'> 0.15411E+04 </wgt>
   <wgt id='1008'> 0.15307E+04 </wgt>
   <wgt id='1009'> 0.15544E+04 </wgt>
  </rwgt>
  </event>
  <event>
  6      0 0.15478455E+04 0.30000000E+02 0.75467711E-02 0.13899081E+00
        1 -1    0    0  501    0 0.00000000E+00 0.00000000E+00 0.34474140E+03 0.34474155E+03 0.32000000E+00 0.0000E+00 0.9000E+01
       -1 -1    0    0    0  502 0.00000000E+00 0.00000000E+00 -.92621651E+01 0.92676914E+01 0.32000000E+00 0.0000E+00 0.9000E+01
       23  2    1    2    0    0 0.26408184E+02 0.22046091E+01 0.24957663E+03 0.26410890E+03 0.82236003E+02 0.0000E+00 0.0000E+00
      -11  1    3    3    0    0 0.33201059E+02 0.46561332E+01 0.31787130E+02 0.46199692E+02 0.51099893E-03 0.0000E+00 0.9000E+01
       11  1    3    3    0    0 -.67928751E+01 -.24515241E+01 0.21778950E+03 0.21790920E+03 0.51099893E-03 0.0000E+00 0.9000E+01
       21  1    1    2  501  502 -.26408184E+02 -.22046091E+01 0.85902599E+02 0.89900342E+02 0.75000000E+00 0.0000E+00 0.9000E+01
#aMCatNLO 2  0  0  2  1 0.26500047E+02 0.00000000E+00  9  5  0 0.00000000E+00 0.00000000E+00 0.00000000E+00 0.00000000E+00 0.00000000E+00
  <rwgt>
   <wgt id='1001'> 0.15478E+04 </wgt>
   <wgt id='1002'> 0.13774E+04 </wgt>
   <wgt id='1003'> 0.17681E+04 </wgt>
   <wgt id='1004'> 0.16871E+04 </wgt>
   <wgt id='1005'> 0.15013E+04 </wgt>
   <wgt id='1006'> 0.19272E+04 </wgt>
   <wgt id='1007'> 0.13821E+04 </wgt>
   <wgt id='1008'> 0.12300E+04 </wgt>
   <wgt id='1009'> 0.15787E+04 </wgt>
  </rwgt>
  </event>
  <event>
  4      0 0.15478455E+04 0.22015389E+02 0.75467711E-02 0.16066503E+00
        2 -1    0    0  501    0 0.00000000E+00 0.00000000E+00 0.94352052E+03 0.94352057E+03 0.32000000E+00 0.0000E+00 0.9000E+01
       -2 -1    0    0    0  501 0.00000000E+00 0.00000000E+00 -.26111595E+00 0.41301518E+00 0.32000000E+00 0.0000E+00 0.9000E+01
      -11  1    1    2    0    0 -.95908324E+01 -.95580109E+01 0.77880878E+03 0.77892648E+03 0.51099893E-03 0.0000E+00 0.9000E+01
       11  1    1    2    0    0 0.95908324E+01 0.95580109E+01 0.16445062E+03 0.16500711E+03 0.51099893E-03 0.0000E+00 0.9000E+01
#aMCatNLO 1  0  0  1  2 0.43549575E+01 0.00000000E+00  9  5  0 0.00000000E+00 0.00000000E+00 0.00000000E+00 0.00000000E+00 0.00000000E+00
  <rwgt>
   <wgt id='1001'> 0.15478E+04 </wgt>
   <wgt id='1002'> 0.13672E+04 </wgt>
   <wgt id='1003'> 0.17939E+04 </wgt>
   <wgt id='1004'> 0.19722E+04 </wgt>
   <wgt id='1005'> 0.17406E+04 </wgt>
   <wgt id='1006'> 0.22879E+04 </wgt>
   <wgt id='1007'> 0.11503E+04 </wgt>
   <wgt id='1008'> 0.10170E+04 </wgt>
   <wgt id='1009'> 0.13318E+04 </wgt>
  </rwgt>
  </event>
  <event>
  4      0 0.15478455E+04 0.17311727E+02 0.75467711E-02 0.15638541E+00
       -4 -1    0    0    0  501 0.00000000E+00 0.00000000E+00 0.16026021E+03 0.16026771E+03 0.15500000E+01 0.0000E+00 0.9000E+01
        4 -1    0    0  501    0 0.00000000E+00 0.00000000E+00 -.17735335E+01 0.23554026E+01 0.15500000E+01 0.0000E+00 0.9000E+01
      -11  1    1    2    0    0 -.10210543E+02 -.54676472E+01 0.14201714E+03 0.14248866E+03 0.51099893E-03 0.0000E+00 0.9000E+01
       11  1    1    2    0    0 0.10210543E+02 0.54676472E+01 0.16469537E+02 0.20134448E+02 0.51099893E-03 0.0000E+00 0.9000E+01
#aMCatNLO 1  0  0  2  1 0.11839044E+02 0.00000000E+00  9  5  0 0.00000000E+00 0.00000000E+00 0.00000000E+00 0.00000000E+00 0.00000000E+00
  <rwgt>
   <wgt id='1001'> 0.15479E+04 </wgt>
   <wgt id='1002'> 0.14140E+04 </wgt>
   <wgt id='1003'> 0.17260E+04 </wgt>
   <wgt id='1004'> 0.11441E+04 </wgt>
   <wgt id='1005'> 0.11005E+04 </wgt>
   <wgt id='1006'> 0.11950E+04 </wgt>
   <wgt id='1007'> 0.13709E+04 </wgt>
   <wgt id='1008'> 0.12273E+04 </wgt>
   <wgt id='1009'> 0.15649E+04 </wgt>
  </rwgt>
  </event>
  <event>
  6      0 0.15478455E+04 0.43324878E+02 0.75467711E-02 0.13077334E+00
       21 -1    0    0  502  501 0.00000000E+00 0.00000000E+00 0.52355720E+03 0.52355774E+03 0.75000000E+00 0.0000E+00 0.9000E+01
        1 -1    0    0  501    0 0.00000000E+00 0.00000000E+00 -.48605560E+01 0.48710783E+01 0.32000000E+00 0.0000E+00 0.9000E+01
       23  2    1    2    0    0 0.47378147E+01 -.70733809E+01 0.50127293E+03 0.50903377E+03 0.88138234E+02 0.0000E+00 0.0000E+00
      -11  1    3    3    0    0 -.18872857E+00 -.46913877E+02 0.31583940E+03 0.31930467E+03 0.51099893E-03 0.0000E+00 0.9000E+01
       11  1    3    3    0    0 0.49265433E+01 0.39840497E+02 0.18543353E+03 0.18972910E+03 0.51099893E-03 0.0000E+00 0.9000E+01
        1  1    1    2  502    0 -.47378147E+01 0.70733809E+01 0.17423714E+02 0.19395046E+02 0.32000000E+00 0.0000E+00 0.9000E+01
#aMCatNLO 2  0  0  1  1 0.85134955E+01 0.00000000E+00  9  5  0 0.00000000E+00 0.00000000E+00 0.00000000E+00 0.00000000E+00 0.00000000E+00
  <rwgt>
   <wgt id='1001'> 0.15479E+04 </wgt>
   <wgt id='1002'> 0.13868E+04 </wgt>
   <wgt id='1003'> 0.17525E+04 </wgt>
   <wgt id='1004'> 0.15738E+04 </wgt>
   <wgt id='1005'> 0.14100E+04 </wgt>
   <wgt id='1006'> 0.17819E+04 </wgt>
   <wgt id='1007'> 0.15044E+04 </wgt>
   <wgt id='1008'> 0.13479E+04 </wgt>
   <wgt id='1009'> 0.17033E+04 </wgt>
  </rwgt>
  </event>
  <event>
  6      0 0.15478455E+04 0.30000000E+02 0.75467711E-02 0.16487696E+00
        2 -1    0    0  501    0 0.00000000E+00 0.00000000E+00 0.12491563E+04 0.12491564E+04 0.32000000E+00 0.0000E+00 0.9000E+01
       21 -1    0    0  502  501 0.00000000E+00 0.00000000E+00 -.18782158E+01 0.20224229E+01 0.75000000E+00 0.0000E+00 0.9000E+01
       23  2    1    2    0    0 0.47386092E+01 -.16105594E+01 0.12248924E+04 0.12282382E+04 0.90457900E+02 0.0000E+00 0.0000E+00
      -11  1    3    3    0    0 0.99202340E+01 -.94449402E+01 0.12130300E+04 0.12131073E+04 0.51099893E-03 0.0000E+00 0.9000E+01
       11  1    3    3    0    0 -.51816248E+01 0.78343807E+01 0.11862427E+02 0.15130894E+02 0.51099893E-03 0.0000E+00 0.9000E+01
        2  1    1    2  502    0 -.47386092E+01 0.16105594E+01 0.22385702E+02 0.22940584E+02 0.32000000E+00 0.0000E+00 0.9000E+01
#aMCatNLO 2  0  0  2  1 0.50048295E+01 0.00000000E+00  9  5  0 0.00000000E+00 0.00000000E+00 0.00000000E+00 0.00000000E+00 0.00000000E+00
  <rwgt>
   <wgt id='1001'> 0.15479E+04 </wgt>
   <wgt id='1002'> 0.13482E+04 </wgt>
   <wgt id='1003'> 0.18198E+04 </wgt>
   <wgt id='1004'> 0.12886E+04 </wgt>
   <wgt id='1005'> 0.11225E+04 </wgt>
   <wgt id='1006'> 0.15150E+04 </wgt>
   <wgt id='1007'> 0.16431E+04 </wgt>
   <wgt id='1008'> 0.14312E+04 </wgt>
   <wgt id='1009'> 0.19317E+04 </wgt>
  </rwgt>
  </event>
  <event>
  5      0 0.15478455E+04 0.30440295E+02 0.75467711E-02 0.13575156E+00
       -1 -1    0    0    0  501 0.00000000E+00 0.00000000E+00 0.26028397E+02 0.26030364E+02 0.32000000E+00 0.0000E+00 0.9000E+01
        1 -1    0    0  501    0 0.00000000E+00 0.00000000E+00 -.77149402E+02 0.77150066E+02 0.32000000E+00 0.0000E+00 0.9000E+01
       23  2    1    2    0    0 0.00000000E+00 0.00000000E+00 -.51121005E+02 0.10318043E+03 0.89626133E+02 0.0000E+00 0.0000E+00
      -11  1    3    3    0    0 0.28922262E+02 -.24426745E+02 0.20462072E+01 0.37912400E+02 0.51099893E-03 0.0000E+00 0.9000E+01
       11  1    3    3    0    0 -.28922262E+02 0.24426745E+02 -.53167213E+02 0.65268029E+02 0.51099893E-03 0.0000E+00 0.9000E+01
#aMCatNLO 1  0  0  2  1 0.11193143E+01 0.00000000E+00  9  5  0 0.00000000E+00 0.00000000E+00 0.00000000E+00 0.00000000E+00 0.00000000E+00
  <rwgt>
   <wgt id='1001'> 0.15479E+04 </wgt>
   <wgt id='1002'> 0.17593E+04 </wgt>
   <wgt id='1003'> 0.12681E+04 </wgt>
   <wgt id='1004'> 0.16244E+04 </wgt>
   <wgt id='1005'> 0.18697E+04 </wgt>
   <wgt id='1006'> 0.13001E+04 </wgt>
   <wgt id='1007'> 0.15968E+04 </wgt>
   <wgt id='1008'> 0.17544E+04 </wgt>
   <wgt id='1009'> 0.13871E+04 </wgt>
  </rwgt>
  </event>
  <event>
  4      0 0.15478455E+04 0.17111183E+02 0.75467711E-02 0.14673381E+00
       -2 -1    0    0    0  501 0.00000000E+00 0.00000000E+00 0.20104362E+02 0.20106909E+02 0.32000000E+00 0.0000E+00 0.9000E+01
        2 -1    0    0  501    0 0.00000000E+00 0.00000000E+00 -.28022881E+02 0.28024708E+02 0.32000000E+00 0.0000E+00 0.9000E+01
      -11  1    1    2    0    0 0.13295295E+02 0.19285932E+02 -.62283789E-01 0.23424686E+02 0.51099893E-03 0.0000E+00 0.9000E+01
       11  1    1    2    0    0 -.13295295E+02 -.19285932E+02 -.78562348E+01 0.24706931E+02 0.51099893E-03 0.0000E+00 0.9000E+01
#aMCatNLO 1  0  0  1  2 0.31512896E+01 0.00000000E+00  9  5  0 0.00000000E+00 0.00000000E+00 0.00000000E+00 0.00000000E+00 0.00000000E+00
  <rwgt>
   <wgt id='1001'> 0.15479E+04 </wgt>
   <wgt id='1002'> 0.15806E+04 </wgt>
   <wgt id='1003'> 0.15009E+04 </wgt>
   <wgt id='1004'> 0.13463E+04 </wgt>
   <wgt id='1005'> 0.14420E+04 </wgt>
   <wgt id='1006'> 0.12159E+04 </wgt>
   <wgt id='1007'> 0.16431E+04 </wgt>
   <wgt id='1008'> 0.16229E+04 </wgt>
   <wgt id='1009'> 0.16668E+04 </wgt>
  </rwgt>
  </event>
  <event>
  5      0 0.15478455E+04 0.44351580E+02 0.75467711E-02 0.10031451E+00
        2 -1    0    0  501    0 0.00000000E+00 0.00000000E+00 0.19676285E+03 0.19676311E+03 0.32000000E+00 0.0000E+00 0.9000E+01
       -2 -1    0    0    0  501 0.00000000E+00 0.00000000E+00 -.10401038E+02 0.10405959E+02 0.32000000E+00 0.0000E+00 0.9000E+01
       23  2    1    2    0    0 0.00000000E+00 0.00000000E+00 0.18636182E+03 0.20716907E+03 0.90489217E+02 0.0000E+00 0.0000E+00
      -11  1    3    3    0    0 0.30756866E+02 0.31954309E+02 0.11365975E+03 0.12200656E+03 0.51099893E-03 0.0000E+00 0.9000E+01
       11  1    3    3    0    0 -.30756866E+02 -.31954309E+02 0.72702067E+02 0.85162511E+02 0.51099893E-03 0.0000E+00 0.9000E+01
#aMCatNLO 1  0  0  2  1 0.30586442E+03 0.00000000E+00  9  5  0 0.00000000E+00 0.00000000E+00 0.00000000E+00 0.00000000E+00 0.00000000E+00
  <rwgt>
   <wgt id='1001'> 0.15479E+04 </wgt>
   <wgt id='1002'> 0.15476E+04 </wgt>
   <wgt id='1003'> 0.15482E+04 </wgt>
   <wgt id='1004'> 0.16915E+04 </wgt>
   <wgt id='1005'> 0.16927E+04 </wgt>
   <wgt id='1006'> 0.16898E+04 </wgt>
   <wgt id='1007'> 0.13794E+04 </wgt>
   <wgt id='1008'> 0.13779E+04 </wgt>
   <wgt id='1009'> 0.13814E+04 </wgt>
  </rwgt>
  </event>
  <event>
  4      0 0.15478455E+04 0.30000000E+02 0.75467711E-02 0.13742877E+00
        2 -1    0    0  501    0 0.00000000E+00 0.00000000E+00 0.74525197E+03 0.74525204E+03 0.32000000E+00 0.0000E+00 0.9000E+01
       -2 -1    0    0    0  501 0.00000000E+00 0.00000000E+00 -.73309980E+00 0.79989706E+00 0.32000000E+00 0.0000E+00 0.9000E+01
      -11  1    1    2    0    0 -.23610883E+02 0.26780667E+01 0.41247481E+03 0.41315870E+03 0.51099893E-03 0.0000E+00 0.9000E+01
       11  1    1    2    0    0 0.23610883E+02 -.26780667E+01 0.33204407E+03 0.33289324E+03 0.51099893E-03 0.0000E+00 0.9000E+01
#aMCatNLO 1  0  0  1  1 0.20075633E+02 0.00000000E+00  9  5  0 0.00000000E+00 0.00000000E+00 0.00000000E+00 0.00000000E+00 0.00000000E+00
  <rwgt>
   <wgt id='1001'> 0.15478E+04 </wgt>
   <wgt id='1002'> 0.14670E+04 </wgt>
   <wgt id='1003'> 0.16542E+04 </wgt>
   <wgt id='1004'> 0.22831E+04 </wgt>
   <wgt id='1005'> 0.21323E+04 </wgt>
   <wgt id='1006'> 0.24817E+04 </wgt>
   <wgt id='1007'> 0.95494E+03 </wgt>
   <wgt id='1008'> 0.92623E+03 </wgt>
   <wgt id='1009'> 0.99274E+03 </wgt>
  </rwgt>
  </event>
  <event>
  5      0 0.15478455E+04 0.30000000E+02 0.75467711E-02 0.13651068E+00
        1 -1    0    0  501    0 0.00000000E+00 0.00000000E+00 0.14624577E+04 0.14624578E+04 0.32000000E+00 0.0000E+00 0.9000E+01
       -1 -1    0    0    0  501 0.00000000E+00 0.00000000E+00 -.14401361E+01 0.14752600E+01 0.32000000E+00 0.0000E+00 0.9000E+01
       23  2    1    2    0    0 0.00000000E+00 0.00000000E+00 0.14610176E+04 0.14639330E+04 0.92344421E+02 0.0000E+00 0.0000E+00
      -11  1    3    3    0    0 -.26906897E+01 -.96705150E+01 0.14449685E+04 0.14450034E+04 0.51099893E-03 0.0000E+00 0.9000E+01
       11  1    3    3    0    0 0.26906897E+01 0.96705150E+01 0.16049103E+02 0.18929670E+02 0.51099893E-03 0.0000E+00 0.9000E+01
#aMCatNLO 1  0  0  2  1 0.34559221E+02 0.00000000E+00  9  5  0 0.00000000E+00 0.00000000E+00 0.00000000E+00 0.00000000E+00 0.00000000E+00
  <rwgt>
   <wgt id='1001'> 0.15478E+04 </wgt>
   <wgt id='1002'> 0.14171E+04 </wgt>
   <wgt id='1003'> 0.17309E+04 </wgt>
   <wgt id='1004'> 0.11608E+04 </wgt>
   <wgt id='1005'> 0.10920E+04 </wgt>
   <wgt id='1006'> 0.12571E+04 </wgt>
   <wgt id='1007'> 0.17531E+04 </wgt>
   <wgt id='1008'> 0.15831E+04 </wgt>
   <wgt id='1009'> 0.19909E+04 </wgt>
  </rwgt>
  </event>
  <event>
  6      0 0.15478455E+04 0.45412999E+02 0.75467711E-02 0.12376963E+00
        3 -1    0    0  501    0 0.00000000E+00 0.00000000E+00 0.11413675E+03 0.11413785E+03 0.50000000E+00 0.0000E+00 0.9000E+01
       21 -1    0    0  502  501 0.00000000E+00 0.00000000E+00 -.39435182E+02 0.39442313E+02 0.75000000E+00 0.0000E+00 0.9000E+01
       23  2    1    2    0    0 -.24684593E+02 0.26458999E+02 0.53613364E+02 0.11169496E+03 0.91060216E+02 0.0000E+00 0.0000E+00
      -11  1    3    3    0    0 -.56487245E+02 0.32790054E+02 0.39501503E+02 0.76330631E+02 0.51099893E-03 0.0000E+00 0.9000E+01
       11  1    3    3    0    0 0.31802652E+02 -.63310546E+01 0.14111861E+02 0.35364326E+02 0.51099893E-03 0.0000E+00 0.9000E+01
        3  1    1    2  502    0 0.24684593E+02 -.26458999E+02 0.21088207E+02 0.41885203E+02 0.50000000E+00 0.0000E+00 0.9000E+01
#aMCatNLO 2  0  0  2  1 0.36185740E+02 0.00000000E+00  9  5  0 0.00000000E+00 0.00000000E+00 0.00000000E+00 0.00000000E+00 0.00000000E+00
  <rwgt>
   <wgt id='1001'> 0.15478E+04 </wgt>
   <wgt id='1002'> 0.13949E+04 </wgt>
   <wgt id='1003'> 0.17396E+04 </wgt>
   <wgt id='1004'> 0.16243E+04 </wgt>
   <wgt id='1005'> 0.14639E+04 </wgt>
   <wgt id='1006'> 0.18255E+04 </wgt>
   <wgt id='1007'> 0.14402E+04 </wgt>
   <wgt id='1008'> 0.12979E+04 </wgt>
   <wgt id='1009'> 0.16185E+04 </wgt>
  </rwgt>
  </event>
  <event>
  5      0 0.15478455E+04 0.24371384E+02 0.75467711E-02 0.12850123E+00
        1 -1    0    0  501    0 0.00000000E+00 0.00000000E+00 0.67130690E+02 0.67131452E+02 0.32000000E+00 0.0000E+00 0.9000E+01
       -1 -1    0    0    0  501 0.00000000E+00 0.00000000E+00 -.31657189E+02 0.31658807E+02 0.32000000E+00 0.0000E+00 0.9000E+01
       23  2    1    2    0    0 0.00000000E+00 0.00000000E+00 0.35473500E+02 0.98790259E+02 0.92201660E+02 0.0000E+00 0.0000E+00
      -11  1    3    3    0    0 0.51504468E+01 -.44439678E+02 0.29661967E+02 0.53677224E+02 0.51099893E-03 0.0000E+00 0.9000E+01
       11  1    3    3    0    0 -.51504468E+01 0.44439678E+02 0.58115333E+01 0.45113035E+02 0.51099893E-03 0.0000E+00 0.9000E+01
#aMCatNLO 1  0  0  1  2 0.15423844E+02 0.00000000E+00  9  5  0 0.00000000E+00 0.00000000E+00 0.00000000E+00 0.00000000E+00 0.00000000E+00
  <rwgt>
   <wgt id='1001'> 0.15478E+04 </wgt>
   <wgt id='1002'> 0.15149E+04 </wgt>
   <wgt id='1003'> 0.15868E+04 </wgt>
   <wgt id='1004'> 0.18629E+04 </wgt>
   <wgt id='1005'> 0.18099E+04 </wgt>
   <wgt id='1006'> 0.19272E+04 </wgt>
   <wgt id='1007'> 0.12937E+04 </wgt>
   <wgt id='1008'> 0.12723E+04 </wgt>
   <wgt id='1009'> 0.13182E+04 </wgt>
  </rwgt>
  </event>
  <event>
  4      0 0.15478455E+04 0.30000000E+02 0.75467711E-02 0.12604666E+00
        2 -1    0    0  501    0 0.00000000E+00 0.00000000E+00 0.88447590E+02 0.88448169E+02 0.32000000E+00 0.0000E+00 0.9000E+01
       -2 -1    0    0    0  501 0.00000000E+00 0.00000000E+00 -.48595789E+01 0.48701034E+01 0.32000000E+00 0.0000E+00 0.9000E+01
      -11  1    1    2    0    0 -.15565139E+02 0.85625647E+00 0.11009247E+02 0.19084293E+02 0.51099893E-03 0.0000E+00 0.9000E+01
       11  1    1    2    0    0 0.15565139E+02 -.85625647E+00 0.72578763E+02 0.74233979E+02 0.51099893E-03 0.0000E+00 0.9000E+01
#aMCatNLO 1  0  0  1  1 0.58297525E+02 0.00000000E+00  9  5  0 0.00000000E+00 0.00000000E+00 0.00000000E+00 0.00000000E+00 0.00000000E+00
  <rwgt>
   <wgt id='1001'> 0.15478E+04 </wgt>
   <wgt id='1002'> 0.15451E+04 </wgt>
   <wgt id='1003'> 0.15516E+04 </wgt>
   <wgt id='1004'> 0.18693E+04 </wgt>
   <wgt id='1005'> 0.18685E+04 </wgt>
   <wgt id='1006'> 0.18704E+04 </wgt>
   <wgt id='1007'> 0.12065E+04 </wgt>
   <wgt id='1008'> 0.12027E+04 </wgt>
   <wgt id='1009'> 0.12116E+04 </wgt>
  </rwgt>
  </event>
  <event>
  6      0 0.15478455E+04 0.33615174E+02 0.75467711E-02 0.13300455E+00
       21 -1    0    0  502  501 0.00000000E+00 0.00000000E+00 0.68984432E+01 0.69390935E+01 0.75000000E+00 0.0000E+00 0.9000E+01
        1 -1    0    0  501    0 0.00000000E+00 0.00000000E+00 -.67131042E+03 0.67131050E+03 0.32000000E+00 0.0000E+00 0.9000E+01
       23  2    1    2    0    0 -.17199850E+02 0.60305443E+01 -.62538806E+03 0.63517790E+03 0.10958345E+03 0.0000E+00 0.0000E+00
      -11  1    3    3    0    0 0.25344588E+02 0.39049171E+00 -.34907106E+02 0.43139387E+02 0.51099893E-03 0.0000E+00 0.9000E+01
       11  1    3    3    0    0 -.42544438E+02 0.56400526E+01 -.59048095E+03 0.59203851E+03 0.51099893E-03 0.0000E+00 0.9000E+01
        1  1    1    2  502    0 0.17199850E+02 -.60305443E+01 -.39023915E+02 0.43071692E+02 0.32000000E+00 0.0000E+00 0.9000E+01
#aMCatNLO 2  0  0  1  2 0.18226417E+02 0.00000000E+00  9  5  0 0.00000000E+00 0.00000000E+00 0.00000000E+00 0.00000000E+00 0.00000000E+00
  <rwgt>
   <wgt id='1001'> 0.15479E+04 </wgt>
   <wgt id='1002'> 0.13843E+04 </wgt>
   <wgt id='1003'> 0.17567E+04 </wgt>
   <wgt id='1004'> 0.16190E+04 </wgt>
   <wgt id='1005'> 0.14479E+04 </wgt>
   <wgt id='1006'> 0.18374E+04 </wgt>
   <wgt id='1007'> 0.14398E+04 </wgt>
   <wgt id='1008'> 0.12876E+04 </wgt>
   <wgt id='1009'> 0.16340E+04 </wgt>
  </rwgt>
  </event>
  <event>
  6      0 0.15478455E+04 0.30000000E+02 0.75467711E-02 0.15557767E+00
       21 -1    0    0  501  502 0.00000000E+00 0.00000000E+00 0.32734295E+02 0.32742886E+02 0.75000000E+00 0.0000E+00 0.9000E+01
       -3 -1    0    0    0  501 0.00000000E+00 0.00000000E+00 -.18916272E+03 0.18916338E+03 0.50000000E+00 0.0000E+00 0.9000E+01
       23  2    1    2    0    0 -.54868806E+00 0.18005819E+02 -.40707849E+02 0.10479089E+03 0.94865643E+02 0.0000E+00 0.0000E+00
      -11  1    3    3    0    0 -.34489790E+01 0.80381001E+01 0.31064110E+02 0.32272053E+02 0.51099893E-03 0.0000E+00 0.9000E+01
       11  1    3    3    0    0 0.29002910E+01 0.99677190E+01 -.71771958E+02 0.72518833E+02 0.51099893E-03 0.0000E+00 0.9000E+01
       -3  1    1    2    0  502 0.54868806E+00 -.18005819E+02 -.11572057E+03 0.11711538E+03 0.50000000E+00 0.0000E+00 0.9000E+01
#aMCatNLO 2  0  0  1  2 0.18014177E+02 0.00000000E+00  9  5  0 0.00000000E+00 0.00000000E+00 0.00000000E+00 0.00000000E+00 0.00000000E+00
  <rwgt>
   <wgt id='1001'> 0.15478E+04 </wgt>
   <wgt id='1002'> 0.13586E+04 </wgt>
   <wgt id='1003'> 0.18008E+04 </wgt>
   <wgt id='1004'> 0.16897E+04 </wgt>
   <wgt id='1005'> 0.14832E+04 </wgt>
   <wgt id='1006'> 0.19659E+04 </wgt>
   <wgt id='1007'> 0.13447E+04 </wgt>
   <wgt id='1008'> 0.11804E+04 </wgt>
   <wgt id='1009'> 0.15644E+04 </wgt>
  </rwgt>
  </event>
  <event>
  4      0 -.15478455E+04 0.21670516E+02 0.75467711E-02 0.14846429E+00
       -4 -1    0    0    0  501 0.00000000E+00 0.00000000E+00 0.70397666E+02 0.70414728E+02 0.15500000E+01 0.0000E+00 0.9000E+01
        4 -1    0    0  501    0 0.00000000E+00 0.00000000E+00 -.14844256E+02 0.14924960E+02 0.15500000E+01 0.0000E+00 0.9000E+01
      -11  1    1    2    0    0 0.18502889E+02 0.13467691E+02 -.24198505E+01 0.23012850E+02 0.51099893E-03 0.0000E+00 0.9000E+01
       11  1    1    2    0    0 -.18502889E+02 -.13467691E+02 0.57973261E+02 0.62326837E+02 0.51099893E-03 0.0000E+00 0.9000E+01
#aMCatNLO 1  0  0  2  1 0.13360143E+01 0.00000000E+00  9  5  0 0.00000000E+00 0.00000000E+00 0.00000000E+00 0.00000000E+00 0.00000000E+00
  <rwgt>
   <wgt id='1001'> -.15479E+04 </wgt>
   <wgt id='1002'> -.12295E+04 </wgt>
   <wgt id='1003'> -.19770E+04 </wgt>
   <wgt id='1004'> -.32171E+04 </wgt>
   <wgt id='1005'> -.26590E+04 </wgt>
   <wgt id='1006'> -.39651E+04 </wgt>
   <wgt id='1007'> -.25387E+03 </wgt>
   <wgt id='1008'> -.13205E+03 </wgt>
   <wgt id='1009'> -.42096E+03 </wgt>
  </rwgt>
  </event>
  <event>
  6      0 0.15478455E+04 0.30000000E+02 0.75467711E-02 0.15486419E+00
       -3 -1    0    0    0  501 0.00000000E+00 0.00000000E+00 0.74366941E+01 0.74534837E+01 0.50000000E+00 0.0000E+00 0.9000E+01
       21 -1    0    0  501  502 0.00000000E+00 0.00000000E+00 -.30893672E+03 0.30893763E+03 0.75000000E+00 0.0000E+00 0.9000E+01
       23  2    1    2    0    0 -.63389705E+01 0.29971977E-01 -.28994092E+03 0.30319845E+03 0.88449871E+02 0.0000E+00 0.0000E+00
      -11  1    3    3    0    0 -.89137429E+01 0.14469113E+02 -.28788730E+03 0.28838847E+03 0.51099893E-03 0.0000E+00 0.9000E+01
       11  1    3    3    0    0 0.25747724E+01 -.14439141E+02 -.20536193E+01 0.14809983E+02 0.51099893E-03 0.0000E+00 0.9000E+01
       -3  1    1    2    0  502 0.63389705E+01 -.29971977E-01 -.11559104E+02 0.13192662E+02 0.50000000E+00 0.0000E+00 0.9000E+01
#aMCatNLO 2  0  0  2  2 0.63390414E+01 0.00000000E+00  9  5  0 0.00000000E+00 0.00000000E+00 0.00000000E+00 0.00000000E+00 0.00000000E+00
  <rwgt>
   <wgt id='1001'> 0.15479E+04 </wgt>
   <wgt id='1002'> 0.13594E+04 </wgt>
   <wgt id='1003'> 0.17993E+04 </wgt>
   <wgt id='1004'> 0.16597E+04 </wgt>
   <wgt id='1005'> 0.14576E+04 </wgt>
   <wgt id='1006'> 0.19292E+04 </wgt>
   <wgt id='1007'> 0.13893E+04 </wgt>
   <wgt id='1008'> 0.12202E+04 </wgt>
   <wgt id='1009'> 0.16150E+04 </wgt>
  </rwgt>
  </event>
  <event>
  5      0 0.15478455E+04 0.30000000E+02 0.75467711E-02 0.14161218E+00
        1 -1    0    0  501    0 0.00000000E+00 0.00000000E+00 0.57216589E+03 0.57216598E+03 0.32000000E+00 0.0000E+00 0.9000E+01
       -1 -1    0    0    0  501 0.00000000E+00 0.00000000E+00 -.38893323E+01 0.39024744E+01 0.32000000E+00 0.0000E+00 0.9000E+01
       23  2    1    2    0    0 0.00000000E+00 0.00000000E+00 0.56827656E+03 0.57606845E+03 0.94427843E+02 0.0000E+00 0.0000E+00
      -11  1    3    3    0    0 -.29591285E+02 0.40783614E+01 0.50719730E+03 0.50807615E+03 0.51099893E-03 0.0000E+00 0.9000E+01
       11  1    3    3    0    0 0.29591285E+02 -.40783614E+01 0.61079263E+02 0.67992305E+02 0.51099893E-03 0.0000E+00 0.9000E+01
#aMCatNLO 1  0  0  2  2 0.89815191E+00 0.00000000E+00  9  5  0 0.00000000E+00 0.00000000E+00 0.00000000E+00 0.00000000E+00 0.00000000E+00
  <rwgt>
   <wgt id='1001'> 0.15478E+04 </wgt>
   <wgt id='1002'> 0.15017E+04 </wgt>
   <wgt id='1003'> 0.16070E+04 </wgt>
   <wgt id='1004'> 0.16798E+04 </wgt>
   <wgt id='1005'> 0.16312E+04 </wgt>
   <wgt id='1006'> 0.17423E+04 </wgt>
   <wgt id='1007'> 0.13800E+04 </wgt>
   <wgt id='1008'> 0.13382E+04 </wgt>
   <wgt id='1009'> 0.14338E+04 </wgt>
  </rwgt>
  </event>
  <event>
  4      0 0.15478455E+04 0.30000000E+02 0.75467711E-02 0.16584170E+00
        2 -1    0    0  501    0 0.00000000E+00 0.00000000E+00 0.12890694E+02 0.12894665E+02 0.32000000E+00 0.0000E+00 0.9000E+01
       -2 -1    0    0    0  501 0.00000000E+00 0.00000000E+00 -.18148600E+02 0.18151421E+02 0.32000000E+00 0.0000E+00 0.9000E+01
      -11  1    1    2    0    0 -.38820460E+01 -.79256306E+01 0.10050915E+02 0.13375605E+02 0.51099893E-03 0.0000E+00 0.9000E+01
       11  1    1    2    0    0 0.38820460E+01 0.79256306E+01 -.15308821E+02 0.17670482E+02 0.51099893E-03 0.0000E+00 0.9000E+01
#aMCatNLO 1  0  0  1  1 0.85614385E+01 0.00000000E+00  9  5  0 0.00000000E+00 0.00000000E+00 0.00000000E+00 0.00000000E+00 0.00000000E+00
  <rwgt>
   <wgt id='1001'> 0.15478E+04 </wgt>
   <wgt id='1002'> 0.15423E+04 </wgt>
   <wgt id='1003'> 0.15556E+04 </wgt>
   <wgt id='1004'> 0.20379E+04 </wgt>
   <wgt id='1005'> 0.20341E+04 </wgt>
   <wgt id='1006'> 0.20433E+04 </wgt>
   <wgt id='1007'> 0.10614E+04 </wgt>
   <wgt id='1008'> 0.10559E+04 </wgt>
   <wgt id='1009'> 0.10693E+04 </wgt>
  </rwgt>
  </event>
  <event>
  6      0 0.15478455E+04 0.43950023E+02 0.75467711E-02 0.11337190E+00
       21 -1    0    0  502  501 0.00000000E+00 0.00000000E+00 0.32454505E+03 0.32454592E+03 0.75000000E+00 0.0000E+00 0.9000E+01
        1 -1    0    0  501    0 0.00000000E+00 0.00000000E+00 -.66057605E+02 0.66058380E+02 0.32000000E+00 0.0000E+00 0.9000E+01
       23  2    1    2    0    0 -.99965626E+02 -.29618936E+02 0.35796462E+02 0.14471452E+03 0.93757649E+02 0.0000E+00 0.0000E+00
      -11  1    3    3    0    0 -.12842823E+02 0.27734692E+02 -.79889919E+01 0.31590746E+02 0.51099893E-03 0.0000E+00 0.9000E+01
       11  1    3    3    0    0 -.87122804E+02 -.57353628E+02 0.43785454E+02 0.11312377E+03 0.51099893E-03 0.0000E+00 0.9000E+01
        1  1    1    2  502    0 0.99965626E+02 0.29618936E+02 0.22269098E+03 0.24588978E+03 0.32000000E+00 0.0000E+00 0.9000E+01
#aMCatNLO 2  0  0  1  2 0.10426125E+03 0.00000000E+00  9  5  0 0.00000000E+00 0.00000000E+00 0.00000000E+00 0.00000000E+00 0.00000000E+00
  <rwgt>
   <wgt id='1001'> 0.15479E+04 </wgt>
   <wgt id='1002'> 0.14128E+04 </wgt>
   <wgt id='1003'> 0.17208E+04 </wgt>
   <wgt id='1004'> 0.14830E+04 </wgt>
   <wgt id='1005'> 0.13536E+04 </wgt>
   <wgt id='1006'> 0.16485E+04 </wgt>
   <wgt id='1007'> 0.16144E+04 </wgt>
   <wgt id='1008'> 0.14735E+04 </wgt>
   <wgt id='1009'> 0.17947E+04 </wgt>
  </rwgt>
  </event>
  <event>
  5      0 0.15478455E+04 0.34636403E+02 0.75467711E-02 0.12317615E+00
       -1 -1    0    0    0  501 0.00000000E+00 0.00000000E+00 0.61555849E+01 0.61638969E+01 0.32000000E+00 0.0000E+00 0.9000E+01
        1 -1    0    0  501    0 0.00000000E+00 0.00000000E+00 -.32920959E+03 0.32920974E+03 0.32000000E+00 0.0000E+00 0.9000E+01
       23  2    1    2    0    0 0.00000000E+00 0.00000000E+00 -.32305400E+03 0.33537364E+03 0.90064364E+02 0.0000E+00 0.0000E+00
      -11  1    3    3    0    0 0.30004279E+02 -.17303862E+02 -.54363223E+02 0.64459603E+02 0.51099893E-03 0.0000E+00 0.9000E+01
       11  1    3    3    0    0 -.30004279E+02 0.17303862E+02 -.26869078E+03 0.27091403E+03 0.51099893E-03 0.0000E+00 0.9000E+01
#aMCatNLO 1  0  0  1  2 0.52016502E+02 0.00000000E+00  9  5  0 0.00000000E+00 0.00000000E+00 0.00000000E+00 0.00000000E+00 0.00000000E+00
  <rwgt>
   <wgt id='1001'> 0.15479E+04 </wgt>
   <wgt id='1002'> 0.15110E+04 </wgt>
   <wgt id='1003'> 0.15955E+04 </wgt>
   <wgt id='1004'> 0.10706E+04 </wgt>
   <wgt id='1005'> 0.10999E+04 </wgt>
   <wgt id='1006'> 0.10330E+04 </wgt>
   <wgt id='1007'> 0.19172E+04 </wgt>
   <wgt id='1008'> 0.18239E+04 </wgt>
   <wgt id='1009'> 0.20375E+04 </wgt>
  </rwgt>
  </event>
  <event>
  5      0 0.15478455E+04 0.30000000E+02 0.75467711E-02 0.15590386E+00
        3 -1    0    0  501    0 0.00000000E+00 0.00000000E+00 0.30674039E+02 0.30678114E+02 0.50000000E+00 0.0000E+00 0.9000E+01
       21 -1    0    0  502  501 0.00000000E+00 0.00000000E+00 -.28052342E+02 0.28062366E+02 0.75000000E+00 0.0000E+00 0.9000E+01
      -11  1    1    2    0    0 -.13112573E+02 0.12730644E+02 0.20649502E+02 0.27575547E+02 0.51099893E-03 0.0000E+00 0.9000E+01
       11  1    1    2    0    0 0.88976570E+01 -.67601825E+01 0.55720375E+00 0.11188335E+02 0.51099893E-03 0.0000E+00 0.9000E+01
        3  1    1    2  502    0 0.42149155E+01 -.59704610E+01 -.18585008E+02 0.19976598E+02 0.50000000E+00 0.0000E+00 0.9000E+01
#aMCatNLO 2  0  0  2  1 0.73083457E+01 0.00000000E+00  9  5  0 0.00000000E+00 0.00000000E+00 0.00000000E+00 0.00000000E+00 0.00000000E+00
  <rwgt>
   <wgt id='1001'> 0.15478E+04 </wgt>
   <wgt id='1002'> 0.13582E+04 </wgt>
   <wgt id='1003'> 0.18014E+04 </wgt>
   <wgt id='1004'> 0.18408E+04 </wgt>
   <wgt id='1005'> 0.16154E+04 </wgt>
   <wgt id='1006'> 0.21424E+04 </wgt>
   <wgt id='1007'> 0.12092E+04 </wgt>
   <wgt id='1008'> 0.10611E+04 </wgt>
   <wgt id='1009'> 0.14073E+04 </wgt>
  </rwgt>
  </event>
  <event>
  4      0 0.15478455E+04 0.18313762E+02 0.75467711E-02 0.21270694E+00
       -2 -1    0    0    0  501 0.00000000E+00 0.00000000E+00 0.66713825E+02 0.66714592E+02 0.32000000E+00 0.0000E+00 0.9000E+01
        2 -1    0    0  501    0 0.00000000E+00 0.00000000E+00 -.45830809E+01 0.45942388E+01 0.32000000E+00 0.0000E+00 0.9000E+01
      -11  1    1    2    0    0 0.52929192E+00 0.11039297E+01 -.45016688E+01 0.46651724E+01 0.51099893E-03 0.0000E+00 0.9000E+01
       11  1    1    2    0    0 -.52929192E+00 -.11039297E+01 0.66632413E+02 0.66643658E+02 0.51099893E-03 0.0000E+00 0.9000E+01
#aMCatNLO 1  0  0  1  2 0.49496283E+01 0.00000000E+00  9  5  0 0.00000000E+00 0.00000000E+00 0.00000000E+00 0.00000000E+00 0.00000000E+00
  <rwgt>
   <wgt id='1001'> 0.15479E+04 </wgt>
   <wgt id='1002'> 0.14078E+04 </wgt>
   <wgt id='1003'> 0.16788E+04 </wgt>
   <wgt id='1004'> 0.18164E+04 </wgt>
   <wgt id='1005'> 0.17191E+04 </wgt>
   <wgt id='1006'> 0.17905E+04 </wgt>
   <wgt id='1007'> 0.10991E+04 </wgt>
   <wgt id='1008'> 0.96870E+03 </wgt>
   <wgt id='1009'> 0.12740E+04 </wgt>
  </rwgt>
  </event>
  <event>
  4      0 0.15478455E+04 0.30000000E+02 0.75467711E-02 0.15396579E+00
        2 -1    0    0  501    0 0.00000000E+00 0.00000000E+00 0.20592614E+04 0.20592614E+04 0.32000000E+00 0.0000E+00 0.9000E+01
       -2 -1    0    0    0  501 0.00000000E+00 0.00000000E+00 -.57325635E-02 0.28379088E+00 0.28373297E+00 0.0000E+00 0.9000E+01
      -11  1    1    2    0    0 -.83513613E+01 0.45497729E+01 0.17012749E+03 0.17039310E+03 0.51099893E-03 0.0000E+00 0.9000E+01
       11  1    1    2    0    0 0.83513613E+01 -.45497729E+01 0.18891282E+04 0.18891521E+04 0.51099893E-03 0.0000E+00 0.9000E+01
#aMCatNLO 1  0  0  1  1 0.15505466E+02 0.00000000E+00  9  5  0 0.00000000E+00 0.00000000E+00 0.00000000E+00 0.00000000E+00 0.00000000E+00
  <rwgt>
   <wgt id='1001'> 0.15478E+04 </wgt>
   <wgt id='1002'> 0.14724E+04 </wgt>
   <wgt id='1003'> 0.16539E+04 </wgt>
   <wgt id='1004'> 0.24817E+04 </wgt>
   <wgt id='1005'> 0.22964E+04 </wgt>
   <wgt id='1006'> 0.27422E+04 </wgt>
   <wgt id='1007'> 0.77311E+03 </wgt>
   <wgt id='1008'> 0.78213E+03 </wgt>
   <wgt id='1009'> 0.76043E+03 </wgt>
  </rwgt>
  </event>
  <event>
  6      0 0.15478455E+04 0.30000000E+02 0.75467711E-02 0.14268704E+00
        2 -1    0    0  501    0 0.00000000E+00 0.00000000E+00 0.33068845E+03 0.33068860E+03 0.32000000E+00 0.0000E+00 0.9000E+01
       21 -1    0    0  502  501 0.00000000E+00 0.00000000E+00 -.93434279E+01 0.93734809E+01 0.75000000E+00 0.0000E+00 0.9000E+01
       23  2    1    2    0    0 -.14759481E+02 -.98905932E+01 0.26994570E+03 0.28567773E+03 0.91790058E+02 0.0000E+00 0.0000E+00
      -11  1    3    3    0    0 -.30371144E+00 -.21736676E+02 0.26560188E+03 0.26649003E+03 0.51099893E-03 0.0000E+00 0.9000E+01
       11  1    3    3    0    0 -.14455769E+02 0.11846083E+02 0.43438195E+01 0.19187697E+02 0.51099893E-03 0.0000E+00 0.9000E+01
        2  1    1    2  502    0 0.14759481E+02 0.98905932E+01 0.51399316E+02 0.54384356E+02 0.32000000E+00 0.0000E+00 0.9000E+01
#aMCatNLO 2  0  0  2  1 0.17766995E+02 0.00000000E+00  9  5  0 0.00000000E+00 0.00000000E+00 0.00000000E+00 0.00000000E+00 0.00000000E+00
  <rwgt>
   <wgt id='1001'> 0.15479E+04 </wgt>
   <wgt id='1002'> 0.13732E+04 </wgt>
   <wgt id='1003'> 0.17753E+04 </wgt>
   <wgt id='1004'> 0.17065E+04 </wgt>
   <wgt id='1005'> 0.15140E+04 </wgt>
   <wgt id='1006'> 0.19572E+04 </wgt>
   <wgt id='1007'> 0.13472E+04 </wgt>
   <wgt id='1008'> 0.11953E+04 </wgt>
   <wgt id='1009'> 0.15452E+04 </wgt>
  </rwgt>
  </event>
  <event>
  5      0 0.15478455E+04 0.30000000E+02 0.75467711E-02 0.14333061E+00
        3 -1    0    0  501    0 0.00000000E+00 0.00000000E+00 0.12767841E+02 0.12777627E+02 0.50000000E+00 0.0000E+00 0.9000E+01
       -3 -1    0    0    0  501 0.00000000E+00 0.00000000E+00 -.17504074E+03 0.17504145E+03 0.50000000E+00 0.0000E+00 0.9000E+01
       23  2    1    2    0    0 0.00000000E+00 0.00000000E+00 -.16227290E+03 0.18781908E+03 0.94570150E+02 0.0000E+00 0.0000E+00
      -11  1    3    3    0    0 -.21277574E+02 -.39207693E+01 0.23658820E+01 0.21764765E+02 0.51099893E-03 0.0000E+00 0.9000E+01
       11  1    3    3    0    0 0.21277574E+02 0.39207693E+01 -.16463878E+03 0.16605431E+03 0.51099893E-03 0.0000E+00 0.9000E+01
#aMCatNLO 1  0  0  1  2 0.13005117E+02 0.00000000E+00  9  5  0 0.00000000E+00 0.00000000E+00 0.00000000E+00 0.00000000E+00 0.00000000E+00
  <rwgt>
   <wgt id='1001'> 0.15478E+04 </wgt>
   <wgt id='1002'> 0.16990E+04 </wgt>
   <wgt id='1003'> 0.13477E+04 </wgt>
   <wgt id='1004'> 0.17642E+04 </wgt>
   <wgt id='1005'> 0.19437E+04 </wgt>
   <wgt id='1006'> 0.15265E+04 </wgt>
   <wgt id='1007'> 0.12843E+04 </wgt>
   <wgt id='1008'> 0.14047E+04 </wgt>
   <wgt id='1009'> 0.11249E+04 </wgt>
  </rwgt>
  </event>
  <event>
  5      0 0.15478455E+04 0.14431449E+02 0.75467711E-02 0.14121345E+00
        1 -1    0    0  501    0 0.00000000E+00 0.00000000E+00 0.18449743E+02 0.18452518E+02 0.32000000E+00 0.0000E+00 0.9000E+01
       -1 -1    0    0    0  501 0.00000000E+00 0.00000000E+00 -.86146878E+02 0.86147472E+02 0.32000000E+00 0.0000E+00 0.9000E+01
       23  2    1    2    0    0 0.00000000E+00 0.00000000E+00 -.67697135E+02 0.10459999E+03 0.79738672E+02 0.0000E+00 0.0000E+00
      -11  1    3    3    0    0 -.23463039E+02 0.70144941E+01 -.75119720E+02 0.79010693E+02 0.51099893E-03 0.0000E+00 0.9000E+01
       11  1    3    3    0    0 0.23463039E+02 -.70144941E+01 0.74225849E+01 0.25589296E+02 0.51099893E-03 0.0000E+00 0.9000E+01
#aMCatNLO 1  0  0  2  1 0.11973671E+02 0.00000000E+00  9  5  0 0.00000000E+00 0.00000000E+00 0.00000000E+00 0.00000000E+00 0.00000000E+00
  <rwgt>
   <wgt id='1001'> 0.15478E+04 </wgt>
   <wgt id='1002'> 0.14873E+04 </wgt>
   <wgt id='1003'> 0.16252E+04 </wgt>
   <wgt id='1004'> 0.17952E+04 </wgt>
   <wgt id='1005'> 0.17226E+04 </wgt>
   <wgt id='1006'> 0.18882E+04 </wgt>
   <wgt id='1007'> 0.13393E+04 </wgt>
   <wgt id='1008'> 0.12840E+04 </wgt>
   <wgt id='1009'> 0.14101E+04 </wgt>
  </rwgt>
  </event>
  <event>
  5      0 0.15478455E+04 0.37600690E+02 0.75467711E-02 0.13096242E+00
       -2 -1    0    0    0  501 0.00000000E+00 0.00000000E+00 0.23492387E+02 0.23494566E+02 0.32000000E+00 0.0000E+00 0.9000E+01
        2 -1    0    0  501    0 0.00000000E+00 0.00000000E+00 -.93742105E+02 0.93742651E+02 0.32000000E+00 0.0000E+00 0.9000E+01
       23  2    1    2    0    0 0.00000000E+00 0.00000000E+00 -.70249718E+02 0.11723722E+03 0.93859162E+02 0.0000E+00 0.0000E+00
      -11  1    3    3    0    0 -.26759593E+02 -.37268869E+02 -.47448444E+02 0.66003025E+02 0.51099893E-03 0.0000E+00 0.9000E+01
       11  1    3    3    0    0 0.26759593E+02 0.37268869E+02 -.22801274E+02 0.51234193E+02 0.51099893E-03 0.0000E+00 0.9000E+01
#aMCatNLO 1  0  0  1  2 0.29464537E+01 0.00000000E+00  9  5  0 0.00000000E+00 0.00000000E+00 0.00000000E+00 0.00000000E+00 0.00000000E+00
  <rwgt>
   <wgt id='1001'> 0.15479E+04 </wgt>
   <wgt id='1002'> 0.15138E+04 </wgt>
   <wgt id='1003'> 0.15905E+04 </wgt>
   <wgt id='1004'> 0.16655E+04 </wgt>
   <wgt id='1005'> 0.16316E+04 </wgt>
   <wgt id='1006'> 0.17079E+04 </wgt>
   <wgt id='1007'> 0.14017E+04 </wgt>
   <wgt id='1008'> 0.13685E+04 </wgt>
   <wgt id='1009'> 0.14433E+04 </wgt>
  </rwgt>
  </event>
  <event>
  5      0 0.15478455E+04 0.17780344E+02 0.75467711E-02 0.15197565E+00
        2 -1    0    0  501    0 0.00000000E+00 0.00000000E+00 0.19119090E+04 0.19119090E+04 0.32000000E+00 0.0000E+00 0.9000E+01
       -2 -1    0    0    0  501 0.00000000E+00 0.00000000E+00 -.11098704E+01 0.11550811E+01 0.32000000E+00 0.0000E+00 0.9000E+01
       23  2    1    2    0    0 0.00000000E+00 0.00000000E+00 0.19107991E+04 0.19130641E+04 0.93064316E+02 0.0000E+00 0.0000E+00
      -11  1    3    3    0    0 0.88448675E+00 0.14194595E+02 0.18661586E+04 0.18662128E+04 0.51099893E-03 0.0000E+00 0.9000E+01
       11  1    3    3    0    0 -.88448675E+00 -.14194595E+02 0.44640535E+02 0.46851321E+02 0.51099893E-03 0.0000E+00 0.9000E+01
#aMCatNLO 1  0  0  2  1 0.12971068E+02 0.00000000E+00  9  5  0 0.00000000E+00 0.00000000E+00 0.00000000E+00 0.00000000E+00 0.00000000E+00
  <rwgt>
   <wgt id='1001'> 0.15479E+04 </wgt>
   <wgt id='1002'> 0.14917E+04 </wgt>
   <wgt id='1003'> 0.16100E+04 </wgt>
   <wgt id='1004'> 0.13630E+04 </wgt>
   <wgt id='1005'> 0.13394E+04 </wgt>
   <wgt id='1006'> 0.13803E+04 </wgt>
   <wgt id='1007'> 0.16499E+04 </wgt>
   <wgt id='1008'> 0.15680E+04 </wgt>
   <wgt id='1009'> 0.17482E+04 </wgt>
  </rwgt>
  </event>
  <event>
  5      0 0.15478455E+04 0.42324564E+02 0.75467711E-02 0.11875186E+00
        1 -1    0    0  501    0 0.00000000E+00 0.00000000E+00 0.51234929E+03 0.51234939E+03 0.32000000E+00 0.0000E+00 0.9000E+01
       -1 -1    0    0    0  501 0.00000000E+00 0.00000000E+00 -.49084864E+01 0.49189063E+01 0.32000000E+00 0.0000E+00 0.9000E+01
       23  2    1    2    0    0 0.00000000E+00 0.00000000E+00 0.50744081E+03 0.51726830E+03 0.10035099E+03 0.0000E+00 0.0000E+00
      -11  1    3    3    0    0 -.41374316E+02 0.89182230E+01 0.11481287E+03 0.12236570E+03 0.51099893E-03 0.0000E+00 0.9000E+01
       11  1    3    3    0    0 0.41374316E+02 -.89182230E+01 0.39262793E+03 0.39490260E+03 0.51099893E-03 0.0000E+00 0.9000E+01
#aMCatNLO 1  0  0  1  2 0.68074137E+02 0.00000000E+00  9  5  0 0.00000000E+00 0.00000000E+00 0.00000000E+00 0.00000000E+00 0.00000000E+00
  <rwgt>
   <wgt id='1001'> 0.15478E+04 </wgt>
   <wgt id='1002'> 0.15484E+04 </wgt>
   <wgt id='1003'> 0.15471E+04 </wgt>
   <wgt id='1004'> 0.16616E+04 </wgt>
   <wgt id='1005'> 0.16638E+04 </wgt>
   <wgt id='1006'> 0.16588E+04 </wgt>
   <wgt id='1007'> 0.14076E+04 </wgt>
   <wgt id='1008'> 0.14067E+04 </wgt>
   <wgt id='1009'> 0.14086E+04 </wgt>
  </rwgt>
  </event>
  <event>
  4      0 0.15478455E+04 0.30000000E+02 0.75467711E-02 0.12526626E+00
        2 -1    0    0  501    0 0.00000000E+00 0.00000000E+00 0.93882830E+02 0.93883376E+02 0.32000000E+00 0.0000E+00 0.9000E+01
       -2 -1    0    0    0  501 0.00000000E+00 0.00000000E+00 -.53183930E+01 0.53280113E+01 0.32000000E+00 0.0000E+00 0.9000E+01
      -11  1    1    2    0    0 0.11556981E+02 -.14097808E+02 0.72998872E+02 0.75240596E+02 0.51099893E-03 0.0000E+00 0.9000E+01
       11  1    1    2    0    0 -.11556981E+02 0.14097808E+02 0.15565566E+02 0.23970791E+02 0.51099893E-03 0.0000E+00 0.9000E+01
#aMCatNLO 1  0  0  1  1 0.57234395E+02 0.00000000E+00  9  5  0 0.00000000E+00 0.00000000E+00 0.00000000E+00 0.00000000E+00 0.00000000E+00
  <rwgt>
   <wgt id='1001'> 0.15478E+04 </wgt>
   <wgt id='1002'> 0.15458E+04 </wgt>
   <wgt id='1003'> 0.15506E+04 </wgt>
   <wgt id='1004'> 0.18404E+04 </wgt>
   <wgt id='1005'> 0.18403E+04 </wgt>
   <wgt id='1006'> 0.18405E+04 </wgt>
   <wgt id='1007'> 0.12333E+04 </wgt>
   <wgt id='1008'> 0.12302E+04 </wgt>
   <wgt id='1009'> 0.12375E+04 </wgt>
  </rwgt>
  </event>
  <event>
  5      0 0.15478455E+04 0.38698141E+02 0.75467711E-02 0.12531459E+00
        1 -1    0    0  501    0 0.00000000E+00 0.00000000E+00 0.16091352E+04 0.16091353E+04 0.32000000E+00 0.0000E+00 0.9000E+01
       -1 -1    0    0    0  501 0.00000000E+00 0.00000000E+00 -.15359775E+01 0.15689573E+01 0.32000000E+00 0.0000E+00 0.9000E+01
       23  2    1    2    0    0 0.00000000E+00 0.00000000E+00 0.16075993E+04 0.16107042E+04 0.99963617E+02 0.0000E+00 0.0000E+00
      -11  1    3    3    0    0 0.31946936E+02 0.21838942E+02 0.29410308E+03 0.29663811E+03 0.51099893E-03 0.0000E+00 0.9000E+01
       11  1    3    3    0    0 -.31946936E+02 -.21838942E+02 0.13134962E+04 0.13140661E+04 0.51099893E-03 0.0000E+00 0.9000E+01
#aMCatNLO 1  0  0  1  2 0.38451648E+02 0.00000000E+00  9  5  0 0.00000000E+00 0.00000000E+00 0.00000000E+00 0.00000000E+00 0.00000000E+00
  <rwgt>
   <wgt id='1001'> 0.15478E+04 </wgt>
   <wgt id='1002'> 0.14785E+04 </wgt>
   <wgt id='1003'> 0.16368E+04 </wgt>
   <wgt id='1004'> 0.20750E+04 </wgt>
   <wgt id='1005'> 0.19528E+04 </wgt>
   <wgt id='1006'> 0.22319E+04 </wgt>
   <wgt id='1007'> 0.10397E+04 </wgt>
   <wgt id='1008'> 0.10196E+04 </wgt>
   <wgt id='1009'> 0.10655E+04 </wgt>
  </rwgt>
  </event>
  <event>
  6      0 0.15478455E+04 0.30000000E+02 0.75467711E-02 0.13348899E+00
       21 -1    0    0  502  501 0.00000000E+00 0.00000000E+00 0.28825148E+02 0.28834904E+02 0.75000000E+00 0.0000E+00 0.9000E+01
        1 -1    0    0  501    0 0.00000000E+00 0.00000000E+00 -.17048079E+03 0.17048109E+03 0.32000000E+00 0.0000E+00 0.9000E+01
       23  2    1    2    0    0 0.48131254E+01 -.41307274E+02 -.92508165E+02 0.13493406E+03 0.88994279E+02 0.0000E+00 0.0000E+00
      -11  1    3    3    0    0 0.47856755E-01 -.35817901E+02 -.11016390E+03 0.11584045E+03 0.51099893E-03 0.0000E+00 0.9000E+01
       11  1    3    3    0    0 0.47652686E+01 -.54893738E+01 0.17655734E+02 0.19093610E+02 0.51099893E-03 0.0000E+00 0.9000E+01
        1  1    1    2  502    0 -.48131254E+01 0.41307274E+02 -.49147473E+02 0.64381935E+02 0.32000000E+00 0.0000E+00 0.9000E+01
#aMCatNLO 2  0  0  1  1 0.41586742E+02 0.00000000E+00  9  5  0 0.00000000E+00 0.00000000E+00 0.00000000E+00 0.00000000E+00 0.00000000E+00
  <rwgt>
   <wgt id='1001'> 0.15479E+04 </wgt>
   <wgt id='1002'> 0.13837E+04 </wgt>
   <wgt id='1003'> 0.17576E+04 </wgt>
   <wgt id='1004'> 0.16317E+04 </wgt>
   <wgt id='1005'> 0.14587E+04 </wgt>
   <wgt id='1006'> 0.18529E+04 </wgt>
   <wgt id='1007'> 0.14300E+04 </wgt>
   <wgt id='1008'> 0.12783E+04 </wgt>
   <wgt id='1009'> 0.16237E+04 </wgt>
  </rwgt>
  </event>
  <event>
  4      0 0.15478455E+04 0.26808895E+02 0.75467711E-02 0.15257369E+00
        2 -1    0    0  501    0 0.00000000E+00 0.00000000E+00 0.54945409E+03 0.54945418E+03 0.32000000E+00 0.0000E+00 0.9000E+01
       -2 -1    0    0    0  501 0.00000000E+00 0.00000000E+00 -.10609955E+01 0.11082019E+01 0.32000000E+00 0.0000E+00 0.9000E+01
      -11  1    1    2    0    0 0.19652601E+02 0.57445840E+01 0.42411459E+03 0.42460854E+03 0.51099893E-03 0.0000E+00 0.9000E+01
       11  1    1    2    0    0 -.19652601E+02 -.57445840E+01 0.12427850E+03 0.12595384E+03 0.51099893E-03 0.0000E+00 0.9000E+01
#aMCatNLO 1  0  0  1  1 0.30562866E-02 0.00000000E+00  9  5  0 0.00000000E+00 0.00000000E+00 0.00000000E+00 0.00000000E+00 0.00000000E+00
  <rwgt>
   <wgt id='1001'> 0.15486E+04 </wgt>
   <wgt id='1002'> 0.13944E+04 </wgt>
   <wgt id='1003'> 0.17526E+04 </wgt>
   <wgt id='1004'> 0.20255E+04 </wgt>
   <wgt id='1005'> 0.18197E+04 </wgt>
   <wgt id='1006'> 0.22982E+04 </wgt>
   <wgt id='1007'> 0.11171E+04 </wgt>
   <wgt id='1008'> 0.10088E+04 </wgt>
   <wgt id='1009'> 0.12603E+04 </wgt>
  </rwgt>
  </event>
  <event>
  5      0 0.15478455E+04 0.38011414E+02 0.75467711E-02 0.11582885E+00
       -1 -1    0    0    0  501 0.00000000E+00 0.00000000E+00 0.69110447E+01 0.69184491E+01 0.32000000E+00 0.0000E+00 0.9000E+01
        1 -1    0    0  501    0 0.00000000E+00 0.00000000E+00 -.30669930E+03 0.30669946E+03 0.32000000E+00 0.0000E+00 0.9000E+01
       23  2    1    2    0    0 0.00000000E+00 0.00000000E+00 -.29978825E+03 0.31361791E+03 0.92104284E+02 0.0000E+00 0.0000E+00
      -11  1    3    3    0    0 0.13453301E+02 0.35551038E+02 -.61367767E+02 0.72186359E+02 0.51099893E-03 0.0000E+00 0.9000E+01
       11  1    3    3    0    0 -.13453301E+02 -.35551038E+02 -.23842049E+03 0.24143155E+03 0.51099893E-03 0.0000E+00 0.9000E+01
#aMCatNLO 1  0  0  1  1 0.92499155E+02 0.00000000E+00  9  5  0 0.00000000E+00 0.00000000E+00 0.00000000E+00 0.00000000E+00 0.00000000E+00
  <rwgt>
   <wgt id='1001'> 0.15479E+04 </wgt>
   <wgt id='1002'> 0.15476E+04 </wgt>
   <wgt id='1003'> 0.15483E+04 </wgt>
   <wgt id='1004'> 0.16874E+04 </wgt>
   <wgt id='1005'> 0.16888E+04 </wgt>
   <wgt id='1006'> 0.16858E+04 </wgt>
   <wgt id='1007'> 0.13810E+04 </wgt>
   <wgt id='1008'> 0.13794E+04 </wgt>
   <wgt id='1009'> 0.13831E+04 </wgt>
  </rwgt>
  </event>
  <event>
  5      0 0.15478455E+04 0.19644290E+02 0.75467711E-02 0.14372446E+00
       -3 -1    0    0    0  501 0.00000000E+00 0.00000000E+00 0.43949036E+02 0.43951880E+02 0.50000000E+00 0.0000E+00 0.9000E+01
        3 -1    0    0  501    0 0.00000000E+00 0.00000000E+00 -.33093008E+02 0.33096785E+02 0.50000000E+00 0.0000E+00 0.9000E+01
       23  2    1    2    0    0 0.00000000E+00 0.00000000E+00 0.10856028E+02 0.77048665E+02 0.76280033E+02 0.0000E+00 0.0000E+00
      -11  1    3    3    0    0 -.11941369E+02 0.12772206E+02 -.28809485E+02 0.33700326E+02 0.51099893E-03 0.0000E+00 0.9000E+01
       11  1    3    3    0    0 0.11941369E+02 -.12772206E+02 0.39665513E+02 0.43348339E+02 0.51099893E-03 0.0000E+00 0.9000E+01
#aMCatNLO 1  0  0  2  1 0.17356500E+02 0.00000000E+00  9  5  0 0.00000000E+00 0.00000000E+00 0.00000000E+00 0.00000000E+00 0.00000000E+00
  <rwgt>
   <wgt id='1001'> 0.15479E+04 </wgt>
   <wgt id='1002'> 0.15225E+04 </wgt>
   <wgt id='1003'> 0.15731E+04 </wgt>
   <wgt id='1004'> 0.17231E+04 </wgt>
   <wgt id='1005'> 0.17096E+04 </wgt>
   <wgt id='1006'> 0.17312E+04 </wgt>
   <wgt id='1007'> 0.14283E+04 </wgt>
   <wgt id='1008'> 0.13806E+04 </wgt>
   <wgt id='1009'> 0.14848E+04 </wgt>
  </rwgt>
  </event>
  <event>
  5      0 0.15478455E+04 0.41549059E+02 0.75467711E-02 0.12521353E+00
       -1 -1    0    0    0  501 0.00000000E+00 0.00000000E+00 0.13166035E+01 0.13549335E+01 0.32000000E+00 0.0000E+00 0.9000E+01
        1 -1    0    0  501    0 0.00000000E+00 0.00000000E+00 -.16086618E+04 0.16086618E+04 0.32000000E+00 0.0000E+00 0.9000E+01
       23  2    1    2    0    0 0.00000000E+00 0.00000000E+00 -.16073452E+04 0.16100168E+04 0.92711401E+02 0.0000E+00 0.0000E+00
      -11  1    3    3    0    0 0.18959246E+01 -.41505780E+02 -.44670868E+03 0.44863679E+03 0.51099893E-03 0.0000E+00 0.9000E+01
       11  1    3    3    0    0 -.18959246E+01 0.41505780E+02 -.11606365E+04 0.11613800E+04 0.51099893E-03 0.0000E+00 0.9000E+01
#aMCatNLO 1  0  0  2  1 0.35491761E+02 0.00000000E+00  9  5  0 0.00000000E+00 0.00000000E+00 0.00000000E+00 0.00000000E+00 0.00000000E+00
  <rwgt>
   <wgt id='1001'> 0.15479E+04 </wgt>
   <wgt id='1002'> 0.15472E+04 </wgt>
   <wgt id='1003'> 0.15488E+04 </wgt>
   <wgt id='1004'> 0.15975E+04 </wgt>
   <wgt id='1005'> 0.15983E+04 </wgt>
   <wgt id='1006'> 0.15964E+04 </wgt>
   <wgt id='1007'> 0.14717E+04 </wgt>
   <wgt id='1008'> 0.14697E+04 </wgt>
   <wgt id='1009'> 0.14743E+04 </wgt>
  </rwgt>
  </event>
  <event>
  6      0 0.15478455E+04 0.30000000E+02 0.75467711E-02 0.12969716E+00
       -1 -1    0    0    0  502 0.00000000E+00 0.00000000E+00 0.56760633E+01 0.56850764E+01 0.32000000E+00 0.0000E+00 0.9000E+01
        1 -1    0    0  501    0 0.00000000E+00 0.00000000E+00 -.10539485E+04 0.10539486E+04 0.32000000E+00 0.0000E+00 0.9000E+01
       23  2    1    2    0    0 0.43491518E+02 -.24898789E+02 -.69320267E+03 0.70104394E+03 0.91767097E+02 0.0000E+00 0.0000E+00
      -11  1    3    3    0    0 0.34473220E+02 -.17649737E+02 -.93157784E+02 0.10088751E+03 0.51099893E-03 0.0000E+00 0.9000E+01
       11  1    3    3    0    0 0.90182985E+01 -.72490519E+01 -.60004489E+03 0.60015644E+03 0.51099893E-03 0.0000E+00 0.9000E+01
       21  1    1    2  501  502 -.43491518E+02 0.24898789E+02 -.35506980E+03 0.35858972E+03 0.75000000E+00 0.0000E+00 0.9000E+01
#aMCatNLO 2  0  0  1  2 0.50114487E+02 0.00000000E+00  9  5  0 0.00000000E+00 0.00000000E+00 0.00000000E+00 0.00000000E+00 0.00000000E+00
  <rwgt>
   <wgt id='1001'> 0.15479E+04 </wgt>
   <wgt id='1002'> 0.13881E+04 </wgt>
   <wgt id='1003'> 0.17505E+04 </wgt>
   <wgt id='1004'> 0.15989E+04 </wgt>
   <wgt id='1005'> 0.14339E+04 </wgt>
   <wgt id='1006'> 0.18082E+04 </wgt>
   <wgt id='1007'> 0.14750E+04 </wgt>
   <wgt id='1008'> 0.13228E+04 </wgt>
   <wgt id='1009'> 0.16681E+04 </wgt>
  </rwgt>
  </event>
  <event>
  6      0 0.15478455E+04 0.36903928E+02 0.75467711E-02 0.12809481E+00
       -2 -1    0    0    0  501 0.00000000E+00 0.00000000E+00 0.54778849E+01 0.54872236E+01 0.32000000E+00 0.0000E+00 0.9000E+01
        2 -1    0    0  502    0 0.00000000E+00 0.00000000E+00 -.88148749E+03 0.88148755E+03 0.32000000E+00 0.0000E+00 0.9000E+01
       23  2    1    2    0    0 -.29727029E+02 0.12499228E+01 -.43823419E+03 0.44818879E+03 0.89099552E+02 0.0000E+00 0.0000E+00
      -11  1    3    3    0    0 -.45329053E+02 0.23705655E+02 -.38459648E+03 0.38798342E+03 0.51099893E-03 0.0000E+00 0.9000E+01
       11  1    3    3    0    0 0.15602024E+02 -.22455732E+02 -.53637706E+02 0.60205370E+02 0.51099893E-03 0.0000E+00 0.9000E+01
       21  1    1    2  502  501 0.29727029E+02 -.12499228E+01 -.43777542E+03 0.43878599E+03 0.75000000E+00 0.0000E+00 0.9000E+01
#aMCatNLO 2  0  0  2  1 0.29753295E+02 0.00000000E+00  9  5  0 0.00000000E+00 0.00000000E+00 0.00000000E+00 0.00000000E+00 0.00000000E+00
  <rwgt>
   <wgt id='1001'> 0.15479E+04 </wgt>
   <wgt id='1002'> 0.13900E+04 </wgt>
   <wgt id='1003'> 0.17475E+04 </wgt>
   <wgt id='1004'> 0.16345E+04 </wgt>
   <wgt id='1005'> 0.14677E+04 </wgt>
   <wgt id='1006'> 0.18454E+04 </wgt>
   <wgt id='1007'> 0.14387E+04 </wgt>
   <wgt id='1008'> 0.12919E+04 </wgt>
   <wgt id='1009'> 0.16242E+04 </wgt>
  </rwgt>
  </event>
  <event>
  4      0 0.15478455E+04 0.21940544E+02 0.75467711E-02 0.14980081E+00
        4 -1    0    0  501    0 0.00000000E+00 0.00000000E+00 0.22695929E+03 0.22696458E+03 0.15500000E+01 0.0000E+00 0.9000E+01
       -4 -1    0    0    0  501 0.00000000E+00 0.00000000E+00 -.23758856E+01 0.28367821E+01 0.15500000E+01 0.0000E+00 0.9000E+01
      -11  1    1    2    0    0 -.15739890E+02 0.54001225E+01 0.19616437E+03 0.19686890E+03 0.51099893E-03 0.0000E+00 0.9000E+01
       11  1    1    2    0    0 0.15739890E+02 -.54001225E+01 0.28419038E+02 0.32932464E+02 0.51099893E-03 0.0000E+00 0.9000E+01
#aMCatNLO 1  0  0  2  1 0.10338197E+02 0.00000000E+00  9  5  0 0.00000000E+00 0.00000000E+00 0.00000000E+00 0.00000000E+00 0.00000000E+00
  <rwgt>
   <wgt id='1001'> 0.15478E+04 </wgt>
   <wgt id='1002'> 0.14650E+04 </wgt>
   <wgt id='1003'> 0.16546E+04 </wgt>
   <wgt id='1004'> 0.16623E+04 </wgt>
   <wgt id='1005'> 0.16073E+04 </wgt>
   <wgt id='1006'> 0.17305E+04 </wgt>
   <wgt id='1007'> 0.12815E+04 </wgt>
   <wgt id='1008'> 0.11903E+04 </wgt>
   <wgt id='1009'> 0.14010E+04 </wgt>
  </rwgt>
  </event>
  <event>
  5      0 0.15478455E+04 0.24645781E+02 0.75467711E-02 0.14900018E+00
        1 -1    0    0  501    0 0.00000000E+00 0.00000000E+00 0.11489868E+04 0.11489869E+04 0.32000000E+00 0.0000E+00 0.9000E+01
       -1 -1    0    0    0  501 0.00000000E+00 0.00000000E+00 -.18504553E+01 0.18779204E+01 0.32000000E+00 0.0000E+00 0.9000E+01
       23  2    1    2    0    0 0.00000000E+00 0.00000000E+00 0.11471364E+04 0.11508648E+04 0.92563028E+02 0.0000E+00 0.0000E+00
      -11  1    3    3    0    0 0.15639865E+02 0.16806192E+02 0.73921583E+02 0.77404482E+02 0.51099893E-03 0.0000E+00 0.9000E+01
       11  1    3    3    0    0 -.15639865E+02 -.16806192E+02 0.10732148E+04 0.10734603E+04 0.51099893E-03 0.0000E+00 0.9000E+01
#aMCatNLO 1  0  0  1  2 0.32651443E+00 0.00000000E+00  9  5  0 0.00000000E+00 0.00000000E+00 0.00000000E+00 0.00000000E+00 0.00000000E+00
  <rwgt>
   <wgt id='1001'> 0.15478E+04 </wgt>
   <wgt id='1002'> 0.14149E+04 </wgt>
   <wgt id='1003'> 0.17205E+04 </wgt>
   <wgt id='1004'> 0.19841E+04 </wgt>
   <wgt id='1005'> 0.18038E+04 </wgt>
   <wgt id='1006'> 0.22189E+04 </wgt>
   <wgt id='1007'> 0.11478E+04 </wgt>
   <wgt id='1008'> 0.10569E+04 </wgt>
   <wgt id='1009'> 0.12652E+04 </wgt>
  </rwgt>
  </event>
  <event>
  5      0 0.15478455E+04 0.40064920E+02 0.75467711E-02 0.13162472E+00
        1 -1    0    0  501    0 0.00000000E+00 0.00000000E+00 0.24425549E+03 0.24425570E+03 0.32000000E+00 0.0000E+00 0.9000E+01
       -1 -1    0    0    0  501 0.00000000E+00 0.00000000E+00 -.73707694E+01 0.73777125E+01 0.32000000E+00 0.0000E+00 0.9000E+01
       23  2    1    2    0    0 0.00000000E+00 0.00000000E+00 0.23688472E+03 0.25163341E+03 0.84882291E+02 0.0000E+00 0.0000E+00
      -11  1    3    3    0    0 -.35105630E+02 -.19307836E+02 0.76933769E+02 0.86741008E+02 0.51099893E-03 0.0000E+00 0.9000E+01
       11  1    3    3    0    0 0.35105630E+02 0.19307836E+02 0.15995095E+03 0.16489241E+03 0.51099893E-03 0.0000E+00 0.9000E+01
#aMCatNLO 1  0  0  1  2 0.11071583E+02 0.00000000E+00  9  5  0 0.00000000E+00 0.00000000E+00 0.00000000E+00 0.00000000E+00 0.00000000E+00
  <rwgt>
   <wgt id='1001'> 0.15478E+04 </wgt>
   <wgt id='1002'> 0.15481E+04 </wgt>
   <wgt id='1003'> 0.15475E+04 </wgt>
   <wgt id='1004'> 0.16962E+04 </wgt>
   <wgt id='1005'> 0.16981E+04 </wgt>
   <wgt id='1006'> 0.16937E+04 </wgt>
   <wgt id='1007'> 0.13729E+04 </wgt>
   <wgt id='1008'> 0.13719E+04 </wgt>
   <wgt id='1009'> 0.13743E+04 </wgt>
  </rwgt>
  </event>
  <event>
  6      0 0.15478455E+04 0.45290513E+02 0.75467711E-02 0.12251916E+00
       -2 -1    0    0    0  502 0.00000000E+00 0.00000000E+00 0.26043348E+01 0.26239207E+01 0.32000000E+00 0.0000E+00 0.9000E+01
        2 -1    0    0  501    0 0.00000000E+00 0.00000000E+00 -.19754016E+04 0.19754016E+04 0.32000000E+00 0.0000E+00 0.9000E+01
       23  2    1    2    0    0 0.17725926E+02 0.38849279E+02 -.13055331E+04 0.13093959E+04 0.90981702E+02 0.0000E+00 0.0000E+00
      -11  1    3    3    0    0 -.37214871E+02 0.18322188E+02 -.59722685E+03 0.59866565E+03 0.51099893E-03 0.0000E+00 0.9000E+01
       11  1    3    3    0    0 0.54940797E+02 0.20527090E+02 -.70830622E+03 0.71073029E+03 0.51099893E-03 0.0000E+00 0.9000E+01
       21  1    1    2  501  502 -.17725926E+02 -.38849279E+02 -.66726417E+03 0.66862957E+03 0.75000000E+00 0.0000E+00 0.9000E+01
#aMCatNLO 2  0  0  1  2 0.42702166E+02 0.00000000E+00  9  5  0 0.00000000E+00 0.00000000E+00 0.00000000E+00 0.00000000E+00 0.00000000E+00
  <rwgt>
   <wgt id='1001'> 0.15479E+04 </wgt>
   <wgt id='1002'> 0.13964E+04 </wgt>
   <wgt id='1003'> 0.17372E+04 </wgt>
   <wgt id='1004'> 0.15434E+04 </wgt>
   <wgt id='1005'> 0.13924E+04 </wgt>
   <wgt id='1006'> 0.17322E+04 </wgt>
   <wgt id='1007'> 0.15367E+04 </wgt>
   <wgt id='1008'> 0.13863E+04 </wgt>
   <wgt id='1009'> 0.17247E+04 </wgt>
  </rwgt>
  </event>
  <event>
  5      0 0.15478455E+04 0.30000000E+02 0.75467711E-02 0.13529635E+00
       -3 -1    0    0    0  501 0.00000000E+00 0.00000000E+00 0.29223384E+02 0.29227661E+02 0.50000000E+00 0.0000E+00 0.9000E+01
        3 -1    0    0  501    0 0.00000000E+00 0.00000000E+00 -.71334762E+02 0.71336515E+02 0.50000000E+00 0.0000E+00 0.9000E+01
       23  2    1    2    0    0 0.00000000E+00 0.00000000E+00 -.42111379E+02 0.10056418E+03 0.91322424E+02 0.0000E+00 0.0000E+00
      -11  1    3    3    0    0 -.86945677E+01 -.26156119E+02 0.19031714E+02 0.33495435E+02 0.51099893E-03 0.0000E+00 0.9000E+01
       11  1    3    3    0    0 0.86945677E+01 0.26156119E+02 -.61143093E+02 0.67068740E+02 0.51099893E-03 0.0000E+00 0.9000E+01
#aMCatNLO 1  0  0  1  2 0.21294102E+02 0.00000000E+00  9  5  0 0.00000000E+00 0.00000000E+00 0.00000000E+00 0.00000000E+00 0.00000000E+00
  <rwgt>
   <wgt id='1001'> 0.15479E+04 </wgt>
   <wgt id='1002'> 0.15689E+04 </wgt>
   <wgt id='1003'> 0.15203E+04 </wgt>
   <wgt id='1004'> 0.17726E+04 </wgt>
   <wgt id='1005'> 0.17992E+04 </wgt>
   <wgt id='1006'> 0.17378E+04 </wgt>
   <wgt id='1007'> 0.12846E+04 </wgt>
   <wgt id='1008'> 0.13003E+04 </wgt>
   <wgt id='1009'> 0.12641E+04 </wgt>
  </rwgt>
  </event>
  <event>
  5      0 0.15478455E+04 0.39218886E+02 0.75467711E-02 0.12710758E+00
        3 -1    0    0  501    0 0.00000000E+00 0.00000000E+00 0.23105562E+03 0.23105616E+03 0.50000000E+00 0.0000E+00 0.9000E+01
       -3 -1    0    0    0  501 0.00000000E+00 0.00000000E+00 -.92300136E+01 0.92435465E+01 0.50000000E+00 0.0000E+00 0.9000E+01
       23  2    1    2    0    0 0.00000000E+00 0.00000000E+00 0.22182561E+03 0.24029971E+03 0.92397780E+02 0.0000E+00 0.0000E+00
      -11  1    3    3    0    0 0.39082163E+02 -.32719306E+01 0.47409886E+02 0.61529003E+02 0.51099893E-03 0.0000E+00 0.9000E+01
       11  1    3    3    0    0 -.39082163E+02 0.32719306E+01 0.17441572E+03 0.17877070E+03 0.51099893E-03 0.0000E+00 0.9000E+01
#aMCatNLO 1  0  0  2  2 0.30790352E+02 0.00000000E+00  9  5  0 0.00000000E+00 0.00000000E+00 0.00000000E+00 0.00000000E+00 0.00000000E+00
  <rwgt>
   <wgt id='1001'> 0.15478E+04 </wgt>
   <wgt id='1002'> 0.15471E+04 </wgt>
   <wgt id='1003'> 0.15487E+04 </wgt>
   <wgt id='1004'> 0.17201E+04 </wgt>
   <wgt id='1005'> 0.17210E+04 </wgt>
   <wgt id='1006'> 0.17189E+04 </wgt>
   <wgt id='1007'> 0.13416E+04 </wgt>
   <wgt id='1008'> 0.13397E+04 </wgt>
   <wgt id='1009'> 0.13439E+04 </wgt>
  </rwgt>
  </event>
  <event>
  5      0 0.15478455E+04 0.30000000E+02 0.75467711E-02 0.16463337E+00
       -1 -1    0    0    0  501 0.00000000E+00 0.00000000E+00 0.82796798E+02 0.82797416E+02 0.32000000E+00 0.0000E+00 0.9000E+01
        1 -1    0    0  501    0 0.00000000E+00 0.00000000E+00 -.26220220E+02 0.26222172E+02 0.32000000E+00 0.0000E+00 0.9000E+01
       23  2    1    2    0    0 0.00000000E+00 0.00000000E+00 0.56576578E+02 0.10901959E+03 0.93189922E+02 0.0000E+00 0.0000E+00
      -11  1    3    3    0    0 0.13688780E+02 -.25620808E+01 0.80306413E+02 0.81505011E+02 0.51099893E-03 0.0000E+00 0.9000E+01
       11  1    3    3    0    0 -.13688780E+02 0.25620808E+01 -.23729834E+02 0.27514578E+02 0.51099893E-03 0.0000E+00 0.9000E+01
#aMCatNLO 1  0  0  2  2 0.43559436E+00 0.00000000E+00  9  5  0 0.00000000E+00 0.00000000E+00 0.00000000E+00 0.00000000E+00 0.00000000E+00
  <rwgt>
   <wgt id='1001'> 0.15479E+04 </wgt>
   <wgt id='1002'> 0.14817E+04 </wgt>
   <wgt id='1003'> 0.16353E+04 </wgt>
   <wgt id='1004'> 0.17632E+04 </wgt>
   <wgt id='1005'> 0.16914E+04 </wgt>
   <wgt id='1006'> 0.18581E+04 </wgt>
   <wgt id='1007'> 0.12816E+04 </wgt>
   <wgt id='1008'> 0.12243E+04 </wgt>
   <wgt id='1009'> 0.13574E+04 </wgt>
  </rwgt>
  </event>
  <event>
  5      0 0.15478455E+04 0.42489861E+02 0.75467711E-02 0.12085227E+00
       -1 -1    0    0    0  501 0.00000000E+00 0.00000000E+00 0.48197726E+01 0.48303838E+01 0.32000000E+00 0.0000E+00 0.9000E+01
        1 -1    0    0  501    0 0.00000000E+00 0.00000000E+00 -.42730662E+03 0.42730674E+03 0.32000000E+00 0.0000E+00 0.9000E+01
       23  2    1    2    0    0 0.00000000E+00 0.00000000E+00 -.42248685E+03 0.43213712E+03 0.90814962E+02 0.0000E+00 0.0000E+00
      -11  1    3    3    0    0 -.42473111E+02 0.11929625E+01 -.13504142E+03 0.14156826E+03 0.51099893E-03 0.0000E+00 0.9000E+01
       11  1    3    3    0    0 0.42473111E+02 -.11929625E+01 -.28744543E+03 0.29056886E+03 0.51099893E-03 0.0000E+00 0.9000E+01
#aMCatNLO 1  0  0  2  2 0.54958667E+02 0.00000000E+00  9  5  0 0.00000000E+00 0.00000000E+00 0.00000000E+00 0.00000000E+00 0.00000000E+00
  <rwgt>
   <wgt id='1001'> 0.15479E+04 </wgt>
   <wgt id='1002'> 0.15483E+04 </wgt>
   <wgt id='1003'> 0.15473E+04 </wgt>
   <wgt id='1004'> 0.16758E+04 </wgt>
   <wgt id='1005'> 0.16779E+04 </wgt>
   <wgt id='1006'> 0.16731E+04 </wgt>
   <wgt id='1007'> 0.13938E+04 </wgt>
   <wgt id='1008'> 0.13929E+04 </wgt>
   <wgt id='1009'> 0.13950E+04 </wgt>
  </rwgt>
  </event>
  <event>
  5      0 0.15478455E+04 0.30000000E+02 0.75467711E-02 0.11173337E+00
       -2 -1    0    0    0  501 0.00000000E+00 0.00000000E+00 0.15274329E+03 0.15274362E+03 0.32000000E+00 0.0000E+00 0.9000E+01
        2 -1    0    0  501    0 0.00000000E+00 0.00000000E+00 -.15583364E+02 0.15586649E+02 0.32000000E+00 0.0000E+00 0.9000E+01
       23  2    1    2    0    0 0.00000000E+00 0.00000000E+00 0.13715992E+03 0.16833027E+03 0.97581945E+02 0.0000E+00 0.0000E+00
      -11  1    3    3    0    0 0.36014224E+01 -.57681959E+01 -.14763712E+02 0.16254523E+02 0.51099893E-03 0.0000E+00 0.9000E+01
       11  1    3    3    0    0 -.36014224E+01 0.57681959E+01 0.15192363E+03 0.15207575E+03 0.51099893E-03 0.0000E+00 0.9000E+01
#aMCatNLO 1  0  0  2  2 0.13204601E+03 0.00000000E+00  9  5  0 0.00000000E+00 0.00000000E+00 0.00000000E+00 0.00000000E+00 0.00000000E+00
  <rwgt>
   <wgt id='1001'> 0.15479E+04 </wgt>
   <wgt id='1002'> 0.13747E+04 </wgt>
   <wgt id='1003'> 0.18132E+04 </wgt>
   <wgt id='1004'> 0.14205E+04 </wgt>
   <wgt id='1005'> 0.12787E+04 </wgt>
   <wgt id='1006'> 0.16378E+04 </wgt>
   <wgt id='1007'> 0.15965E+04 </wgt>
   <wgt id='1008'> 0.14019E+04 </wgt>
   <wgt id='1009'> 0.18947E+04 </wgt>
  </rwgt>
  </event>
  <event>
  4      0 0.15478455E+04 0.19705753E+02 0.75467711E-02 0.15576565E+00
       -2 -1    0    0    0  501 0.00000000E+00 0.00000000E+00 0.99303344E+02 0.99303860E+02 0.32000000E+00 0.0000E+00 0.9000E+01
        2 -1    0    0  501    0 0.00000000E+00 0.00000000E+00 -.28568350E+01 0.28747011E+01 0.32000000E+00 0.0000E+00 0.9000E+01
      -11  1    1    2    0    0 -.44992774E+01 -.12586632E+02 0.17050877E+02 0.21665623E+02 0.51099893E-03 0.0000E+00 0.9000E+01
       11  1    1    2    0    0 0.44992774E+01 0.12586632E+02 0.79395632E+02 0.80512938E+02 0.51099893E-03 0.0000E+00 0.9000E+01
#aMCatNLO 1  0  0  2  1 0.88663717E+01 0.00000000E+00  9  5  0 0.00000000E+00 0.00000000E+00 0.00000000E+00 0.00000000E+00 0.00000000E+00
  <rwgt>
   <wgt id='1001'> 0.15479E+04 </wgt>
   <wgt id='1002'> 0.14485E+04 </wgt>
   <wgt id='1003'> 0.16793E+04 </wgt>
   <wgt id='1004'> 0.16746E+04 </wgt>
   <wgt id='1005'> 0.15844E+04 </wgt>
   <wgt id='1006'> 0.17927E+04 </wgt>
   <wgt id='1007'> 0.13126E+04 </wgt>
   <wgt id='1008'> 0.12177E+04 </wgt>
   <wgt id='1009'> 0.14388E+04 </wgt>
  </rwgt>
  </event>
  <event>
  5      0 -.15478455E+04 0.30000000E+02 0.75467711E-02 0.14843690E+00
        2 -1    0    0  502    0 0.00000000E+00 0.00000000E+00 0.45998299E+03 0.45998310E+03 0.32000000E+00 0.0000E+00 0.9000E+01
       -2 -1    0    0    0  501 0.00000000E+00 0.00000000E+00 -.17973326E+01 0.18255970E+01 0.32000000E+00 0.0000E+00 0.9000E+01
      -11  1    1    2    0    0 0.77937122E+01 -.83453081E+01 0.21238495E+03 0.21269169E+03 0.51099893E-03 0.0000E+00 0.9000E+01
       11  1    1    2    0    0 -.20921768E+02 0.15961552E+01 0.81677117E+02 0.84329233E+02 0.51099893E-03 0.0000E+00 0.9000E+01
       21  1    1    2  502  501 0.13128056E+02 0.67491528E+01 0.16412359E+03 0.16478778E+03 0.75000000E+00 0.0000E+00 0.9000E+01
#aMCatNLO 2  0  0  1  2 0.14761332E+02 0.00000000E+00  9  5  0 0.00000000E+00 0.00000000E+00 0.00000000E+00 0.00000000E+00 0.00000000E+00
  <rwgt>
   <wgt id='1001'> -.15478E+04 </wgt>
   <wgt id='1002'> -.13667E+04 </wgt>
   <wgt id='1003'> -.17865E+04 </wgt>
   <wgt id='1004'> -.18940E+04 </wgt>
   <wgt id='1005'> -.16722E+04 </wgt>
   <wgt id='1006'> -.21860E+04 </wgt>
   <wgt id='1007'> -.11985E+04 </wgt>
   <wgt id='1008'> -.10582E+04 </wgt>
   <wgt id='1009'> -.13832E+04 </wgt>
  </rwgt>
  </event>
  <event>
  4      0 0.15478455E+04 0.16802135E+02 0.75467711E-02 0.13615594E+00
       -4 -1    0    0    0  501 0.00000000E+00 0.00000000E+00 0.11647043E+03 0.11648075E+03 0.15500000E+01 0.0000E+00 0.9000E+01
        4 -1    0    0  501    0 0.00000000E+00 0.00000000E+00 -.86411600E+01 0.87790744E+01 0.15500000E+01 0.0000E+00 0.9000E+01
      -11  1    1    2    0    0 0.21177535E+02 0.23663363E+02 0.48614230E+02 0.58067083E+02 0.51099893E-03 0.0000E+00 0.9000E+01
       11  1    1    2    0    0 -.21177535E+02 -.23663363E+02 0.59215045E+02 0.67192740E+02 0.51099893E-03 0.0000E+00 0.9000E+01
#aMCatNLO 1  0  0  1  2 0.11074570E+02 0.00000000E+00  9  5  0 0.00000000E+00 0.00000000E+00 0.00000000E+00 0.00000000E+00 0.00000000E+00
  <rwgt>
   <wgt id='1001'> 0.15479E+04 </wgt>
   <wgt id='1002'> 0.14931E+04 </wgt>
   <wgt id='1003'> 0.16173E+04 </wgt>
   <wgt id='1004'> 0.18559E+04 </wgt>
   <wgt id='1005'> 0.17982E+04 </wgt>
   <wgt id='1006'> 0.19288E+04 </wgt>
   <wgt id='1007'> 0.13037E+04 </wgt>
   <wgt id='1008'> 0.12434E+04 </wgt>
   <wgt id='1009'> 0.13807E+04 </wgt>
  </rwgt>
  </event>
  <event>
  5      0 0.15478455E+04 0.30896477E+02 0.75467711E-02 0.12494578E+00
        1 -1    0    0  501    0 0.00000000E+00 0.00000000E+00 0.26441104E+03 0.26441124E+03 0.32000000E+00 0.0000E+00 0.9000E+01
       -1 -1    0    0    0  501 0.00000000E+00 0.00000000E+00 -.98442230E+01 0.98494227E+01 0.32000000E+00 0.0000E+00 0.9000E+01
       23  2    1    2    0    0 0.00000000E+00 0.00000000E+00 0.25456682E+03 0.27426066E+03 0.10205216E+03 0.0000E+00 0.0000E+00
      -11  1    3    3    0    0 0.19209954E+02 -.24198553E+02 0.23641756E+03 0.23842788E+03 0.51099893E-03 0.0000E+00 0.9000E+01
       11  1    3    3    0    0 -.19209954E+02 0.24198553E+02 0.18149260E+02 0.35832777E+02 0.51099893E-03 0.0000E+00 0.9000E+01
#aMCatNLO 1  0  0  2  2 0.48826298E+02 0.00000000E+00  9  5  0 0.00000000E+00 0.00000000E+00 0.00000000E+00 0.00000000E+00 0.00000000E+00
  <rwgt>
   <wgt id='1001'> 0.15478E+04 </wgt>
   <wgt id='1002'> 0.14988E+04 </wgt>
   <wgt id='1003'> 0.16115E+04 </wgt>
   <wgt id='1004'> 0.10744E+04 </wgt>
   <wgt id='1005'> 0.10910E+04 </wgt>
   <wgt id='1006'> 0.10530E+04 </wgt>
   <wgt id='1007'> 0.19086E+04 </wgt>
   <wgt id='1008'> 0.18043E+04 </wgt>
   <wgt id='1009'> 0.20439E+04 </wgt>
  </rwgt>
  </event>
  <event>
  5      0 0.15478455E+04 0.18312439E+02 0.75467711E-02 0.15226047E+00
       -2 -1    0    0    0  501 0.00000000E+00 0.00000000E+00 0.65950281E+02 0.65951058E+02 0.32000000E+00 0.0000E+00 0.9000E+01
        2 -1    0    0  501    0 0.00000000E+00 0.00000000E+00 -.29264926E+02 0.29266675E+02 0.32000000E+00 0.0000E+00 0.9000E+01
       23  2    1    2    0    0 0.00000000E+00 0.00000000E+00 0.36685356E+02 0.95217733E+02 0.87866953E+02 0.0000E+00 0.0000E+00
      -11  1    3    3    0    0 0.56632430E+01 0.12514712E+02 -.26879245E+02 0.30185827E+02 0.51099893E-03 0.0000E+00 0.9000E+01
       11  1    3    3    0    0 -.56632430E+01 -.12514712E+02 0.63564601E+02 0.65031906E+02 0.51099893E-03 0.0000E+00 0.9000E+01
#aMCatNLO 1  0  0  1  2 0.12138879E+02 0.00000000E+00  9  5  0 0.00000000E+00 0.00000000E+00 0.00000000E+00 0.00000000E+00 0.00000000E+00
  <rwgt>
   <wgt id='1001'> 0.15479E+04 </wgt>
   <wgt id='1002'> 0.14792E+04 </wgt>
   <wgt id='1003'> 0.16351E+04 </wgt>
   <wgt id='1004'> 0.17143E+04 </wgt>
   <wgt id='1005'> 0.16448E+04 </wgt>
   <wgt id='1006'> 0.18021E+04 </wgt>
   <wgt id='1007'> 0.13915E+04 </wgt>
   <wgt id='1008'> 0.13192E+04 </wgt>
   <wgt id='1009'> 0.14845E+04 </wgt>
  </rwgt>
  </event>
  <event>
  5      0 0.15478455E+04 0.45038903E+02 0.75467711E-02 0.11478600E+00
        1 -1    0    0  501    0 0.00000000E+00 0.00000000E+00 0.19842195E+03 0.19842221E+03 0.32000000E+00 0.0000E+00 0.9000E+01
       -1 -1    0    0    0  501 0.00000000E+00 0.00000000E+00 -.10450433E+02 0.10455332E+02 0.32000000E+00 0.0000E+00 0.9000E+01
       23  2    1    2    0    0 0.00000000E+00 0.00000000E+00 0.18797152E+03 0.20887754E+03 0.91085321E+02 0.0000E+00 0.0000E+00
      -11  1    3    3    0    0 0.14962385E+02 0.42480934E+02 0.10947657E+03 0.11837915E+03 0.51099893E-03 0.0000E+00 0.9000E+01
       11  1    3    3    0    0 -.14962385E+02 -.42480934E+02 0.78494949E+02 0.90498397E+02 0.51099893E-03 0.0000E+00 0.9000E+01
#aMCatNLO 1  0  0  1  1 0.91680540E+02 0.00000000E+00  9  5  0 0.00000000E+00 0.00000000E+00 0.00000000E+00 0.00000000E+00 0.00000000E+00
  <rwgt>
   <wgt id='1001'> 0.15478E+04 </wgt>
   <wgt id='1002'> 0.15473E+04 </wgt>
   <wgt id='1003'> 0.15485E+04 </wgt>
   <wgt id='1004'> 0.16859E+04 </wgt>
   <wgt id='1005'> 0.16870E+04 </wgt>
   <wgt id='1006'> 0.16846E+04 </wgt>
   <wgt id='1007'> 0.13837E+04 </wgt>
   <wgt id='1008'> 0.13820E+04 </wgt>
   <wgt id='1009'> 0.13859E+04 </wgt>
  </rwgt>
  </event>
  <event>
  4      0 0.15478455E+04 0.30000000E+02 0.75467711E-02 0.13963148E+00
        3 -1    0    0  501    0 0.00000000E+00 0.00000000E+00 0.32148827E+00 0.59443646E+00 0.50000000E+00 0.0000E+00 0.9000E+01
       -3 -1    0    0    0  501 0.00000000E+00 0.00000000E+00 -.58092385E+03 0.58092406E+03 0.50000000E+00 0.0000E+00 0.9000E+01
      -11  1    1    2    0    0 -.51147987E+01 0.80837093E+01 -.52583443E+03 0.52592143E+03 0.51099893E-03 0.0000E+00 0.9000E+01
       11  1    1    2    0    0 0.51147987E+01 -.80837093E+01 -.54767931E+02 0.55597066E+02 0.51099893E-03 0.0000E+00 0.9000E+01
#aMCatNLO 1  0  0  1  1 0.30444300E+02 0.00000000E+00  9  5  0 0.00000000E+00 0.00000000E+00 0.00000000E+00 0.00000000E+00 0.00000000E+00
  <rwgt>
   <wgt id='1001'> 0.15478E+04 </wgt>
   <wgt id='1002'> 0.14071E+04 </wgt>
   <wgt id='1003'> 0.17457E+04 </wgt>
   <wgt id='1004'> 0.11854E+04 </wgt>
   <wgt id='1005'> 0.11166E+04 </wgt>
   <wgt id='1006'> 0.12822E+04 </wgt>
   <wgt id='1007'> 0.15569E+04 </wgt>
   <wgt id='1008'> 0.13928E+04 </wgt>
   <wgt id='1009'> 0.17876E+04 </wgt>
  </rwgt>
  </event>
  <event>
  6      0 0.15478455E+04 0.30000000E+02 0.75467711E-02 0.13296680E+00
        2 -1    0    0  501    0 0.00000000E+00 0.00000000E+00 0.20982556E+03 0.20982580E+03 0.32000000E+00 0.0000E+00 0.9000E+01
       21 -1    0    0  502  501 0.00000000E+00 0.00000000E+00 -.34494573E+02 0.34502725E+02 0.75000000E+00 0.0000E+00 0.9000E+01
       23  2    1    2    0    0 -.26067718E+02 -.22660993E+02 0.17242802E+03 0.20966477E+03 0.11417024E+03 0.0000E+00 0.0000E+00
      -11  1    3    3    0    0 0.10352032E+02 -.34094067E+01 -.14562986E+02 0.18189810E+02 0.51099893E-03 0.0000E+00 0.9000E+01
       11  1    3    3    0    0 -.36419750E+02 -.19251586E+02 0.18699101E+03 0.19147496E+03 0.51099893E-03 0.0000E+00 0.9000E+01
        2  1    1    2  502    0 0.26067718E+02 0.22660993E+02 0.29029590E+01 0.34663758E+02 0.32000000E+00 0.0000E+00 0.9000E+01
#aMCatNLO 2  0  0  2  2 0.34540506E+02 0.00000000E+00  9  5  0 0.00000000E+00 0.00000000E+00 0.00000000E+00 0.00000000E+00 0.00000000E+00
  <rwgt>
   <wgt id='1001'> 0.15479E+04 </wgt>
   <wgt id='1002'> 0.13843E+04 </wgt>
   <wgt id='1003'> 0.17566E+04 </wgt>
   <wgt id='1004'> 0.16112E+04 </wgt>
   <wgt id='1005'> 0.14410E+04 </wgt>
   <wgt id='1006'> 0.18285E+04 </wgt>
   <wgt id='1007'> 0.14539E+04 </wgt>
   <wgt id='1008'> 0.13002E+04 </wgt>
   <wgt id='1009'> 0.16499E+04 </wgt>
  </rwgt>
  </event>
  <event>
  5      0 0.15478455E+04 0.44286084E+02 0.75467711E-02 0.12236090E+00
        3 -1    0    0  501    0 0.00000000E+00 0.00000000E+00 0.71522011E+02 0.71523759E+02 0.50000000E+00 0.0000E+00 0.9000E+01
       -3 -1    0    0    0  501 0.00000000E+00 0.00000000E+00 -.29247107E+02 0.29251380E+02 0.50000000E+00 0.0000E+00 0.9000E+01
       23  2    1    2    0    0 0.00000000E+00 0.00000000E+00 0.42274905E+02 0.10077514E+03 0.91479294E+02 0.0000E+00 0.0000E+00
      -11  1    3    3    0    0 -.44281610E+02 -.62949520E+00 0.85357047E+01 0.45101170E+02 0.51099893E-03 0.0000E+00 0.9000E+01
       11  1    3    3    0    0 0.44281610E+02 0.62949520E+00 0.33739200E+02 0.55673970E+02 0.51099893E-03 0.0000E+00 0.9000E+01
#aMCatNLO 1  0  0  2  2 0.45102008E+02 0.00000000E+00  9  5  0 0.00000000E+00 0.00000000E+00 0.00000000E+00 0.00000000E+00 0.00000000E+00
  <rwgt>
   <wgt id='1001'> 0.15478E+04 </wgt>
   <wgt id='1002'> 0.15491E+04 </wgt>
   <wgt id='1003'> 0.15462E+04 </wgt>
   <wgt id='1004'> 0.17327E+04 </wgt>
   <wgt id='1005'> 0.17359E+04 </wgt>
   <wgt id='1006'> 0.17288E+04 </wgt>
   <wgt id='1007'> 0.13308E+04 </wgt>
   <wgt id='1008'> 0.13306E+04 </wgt>
   <wgt id='1009'> 0.13309E+04 </wgt>
  </rwgt>
  </event>
  <event>
  6      0 -.15478455E+04 0.38648428E+02 0.75467711E-02 0.13384904E+00
        2 -1    0    0  501    0 0.00000000E+00 0.00000000E+00 0.22162978E+02 0.22165288E+02 0.32000000E+00 0.0000E+00 0.9000E+01
       -2 -1    0    0    0  502 0.00000000E+00 0.00000000E+00 -.11216779E+03 0.11216824E+03 0.32000000E+00 0.0000E+00 0.9000E+01
       23  2    1    2    0    0 -.29516283E+00 -.58668469E+01 -.84206224E+02 0.12604540E+03 0.93606880E+02 0.0000E+00 0.0000E+00
      -11  1    3    3    0    0 -.28166501E+02 -.29611655E+02 -.79156867E+02 0.89084294E+02 0.51099893E-03 0.0000E+00 0.9000E+01
       11  1    3    3    0    0 0.27871339E+02 0.23744808E+02 -.50493568E+01 0.36961107E+02 0.51099893E-03 0.0000E+00 0.9000E+01
       21  1    1    2  501  502 0.29516283E+00 0.58668469E+01 -.57985858E+01 0.82881307E+01 0.75000000E+00 0.0000E+00 0.9000E+01
#aMCatNLO 2  0  0  2  1 0.58742671E+01 0.00000000E+00  9  5  0 0.00000000E+00 0.00000000E+00 0.00000000E+00 0.00000000E+00 0.00000000E+00
  <rwgt>
   <wgt id='1001'> -.15479E+04 </wgt>
   <wgt id='1002'> -.13833E+04 </wgt>
   <wgt id='1003'> -.17583E+04 </wgt>
   <wgt id='1004'> -.16949E+04 </wgt>
   <wgt id='1005'> -.15147E+04 </wgt>
   <wgt id='1006'> -.19253E+04 </wgt>
   <wgt id='1007'> -.13752E+04 </wgt>
   <wgt id='1008'> -.12291E+04 </wgt>
   <wgt id='1009'> -.15621E+04 </wgt>
  </rwgt>
  </event>
  <event>
  5      0 0.15478455E+04 0.28504500E+02 0.75467711E-02 0.12894774E+00
        1 -1    0    0  501    0 0.00000000E+00 0.00000000E+00 0.32392201E+01 0.32549880E+01 0.32000000E+00 0.0000E+00 0.9000E+01
       -1 -1    0    0    0  501 0.00000000E+00 0.00000000E+00 -.64075495E+03 0.64075503E+03 0.32000000E+00 0.0000E+00 0.9000E+01
       23  2    1    2    0    0 0.00000000E+00 0.00000000E+00 -.63751573E+03 0.64401002E+03 0.91228271E+02 0.0000E+00 0.0000E+00
      -11  1    3    3    0    0 -.41952782E+02 -.13308857E+02 -.40331896E+03 0.40571337E+03 0.51099893E-03 0.0000E+00 0.9000E+01
       11  1    3    3    0    0 0.41952782E+02 0.13308857E+02 -.23419678E+03 0.23829665E+03 0.51099893E-03 0.0000E+00 0.9000E+01
#aMCatNLO 1  0  0  1  2 0.14792382E+02 0.00000000E+00  9  5  0 0.00000000E+00 0.00000000E+00 0.00000000E+00 0.00000000E+00 0.00000000E+00
  <rwgt>
   <wgt id='1001'> 0.15478E+04 </wgt>
   <wgt id='1002'> 0.14967E+04 </wgt>
   <wgt id='1003'> 0.16116E+04 </wgt>
   <wgt id='1004'> 0.13564E+04 </wgt>
   <wgt id='1005'> 0.13334E+04 </wgt>
   <wgt id='1006'> 0.13842E+04 </wgt>
   <wgt id='1007'> 0.16947E+04 </wgt>
   <wgt id='1008'> 0.16184E+04 </wgt>
   <wgt id='1009'> 0.17908E+04 </wgt>
  </rwgt>
  </event>
  <event>
  5      0 0.15478455E+04 0.30000000E+02 0.75467711E-02 0.15825108E+00
       21 -1    0    0  501  502 0.00000000E+00 0.00000000E+00 0.25750722E+03 0.25750831E+03 0.75000000E+00 0.0000E+00 0.9000E+01
       -2 -1    0    0    0  501 0.00000000E+00 0.00000000E+00 -.25778983E+01 0.25976835E+01 0.32000000E+00 0.0000E+00 0.9000E+01
      -11  1    1    2    0    0 0.10875539E+01 -.44236784E+01 0.14517724E+03 0.14524869E+03 0.51099893E-03 0.0000E+00 0.9000E+01
       11  1    1    2    0    0 -.12535637E+02 0.10758961E+02 0.32011324E+02 0.36022525E+02 0.51099893E-03 0.0000E+00 0.9000E+01
       -2  1    1    2    0  502 0.11448083E+02 -.63352828E+01 0.77740757E+02 0.78834777E+02 0.32000000E+00 0.0000E+00 0.9000E+01
#aMCatNLO 2  0  0  1  2 0.13084128E+02 0.00000000E+00  9  5  0 0.00000000E+00 0.00000000E+00 0.00000000E+00 0.00000000E+00 0.00000000E+00
  <rwgt>
   <wgt id='1001'> 0.15478E+04 </wgt>
   <wgt id='1002'> 0.13556E+04 </wgt>
   <wgt id='1003'> 0.18062E+04 </wgt>
   <wgt id='1004'> 0.17198E+04 </wgt>
   <wgt id='1005'> 0.15062E+04 </wgt>
   <wgt id='1006'> 0.20067E+04 </wgt>
   <wgt id='1007'> 0.13355E+04 </wgt>
   <wgt id='1008'> 0.11696E+04 </wgt>
   <wgt id='1009'> 0.15583E+04 </wgt>
  </rwgt>
  </event>
  <event>
  5      0 0.15478455E+04 0.35525239E+02 0.75467711E-02 0.12662366E+00
        1 -1    0    0  501    0 0.00000000E+00 0.00000000E+00 0.38184092E+02 0.38185433E+02 0.32000000E+00 0.0000E+00 0.9000E+01
       -1 -1    0    0    0  501 0.00000000E+00 0.00000000E+00 -.54982644E+02 0.54983575E+02 0.32000000E+00 0.0000E+00 0.9000E+01
       23  2    1    2    0    0 0.00000000E+00 0.00000000E+00 -.16798552E+02 0.93169008E+02 0.91642090E+02 0.0000E+00 0.0000E+00
      -11  1    3    3    0    0 0.35209781E+02 -.47237585E+01 0.21022950E+02 0.41279620E+02 0.51099893E-03 0.0000E+00 0.9000E+01
       11  1    3    3    0    0 -.35209781E+02 0.47237585E+01 -.37821502E+02 0.51889388E+02 0.51099893E-03 0.0000E+00 0.9000E+01
#aMCatNLO 1  0  0  2  2 0.36737121E+02 0.00000000E+00  9  5  0 0.00000000E+00 0.00000000E+00 0.00000000E+00 0.00000000E+00 0.00000000E+00
  <rwgt>
   <wgt id='1001'> 0.15478E+04 </wgt>
   <wgt id='1002'> 0.16612E+04 </wgt>
   <wgt id='1003'> 0.14018E+04 </wgt>
   <wgt id='1004'> 0.99378E+03 </wgt>
   <wgt id='1005'> 0.11996E+04 </wgt>
   <wgt id='1006'> 0.72862E+03 </wgt>
   <wgt id='1007'> 0.20034E+04 </wgt>
   <wgt id='1008'> 0.20300E+04 </wgt>
   <wgt id='1009'> 0.19690E+04 </wgt>
  </rwgt>
  </event>
  <event>
  6      0 -.15478455E+04 0.42581151E+02 0.75467711E-02 0.13124326E+00
        3 -1    0    0  501    0 0.00000000E+00 0.00000000E+00 0.15044739E+03 0.15044822E+03 0.50000000E+00 0.0000E+00 0.9000E+01
       -3 -1    0    0    0  502 0.00000000E+00 0.00000000E+00 -.16075951E+02 0.16083725E+02 0.50000000E+00 0.0000E+00 0.9000E+01
       23  2    1    2    0    0 0.76917166E+01 -.23338807E+01 0.12393343E+03 0.15333634E+03 0.89932910E+02 0.0000E+00 0.0000E+00
      -11  1    3    3    0    0 0.43101449E+02 0.15584997E+02 0.90503475E+02 0.10144706E+03 0.51099893E-03 0.0000E+00 0.9000E+01
       11  1    3    3    0    0 -.35409733E+02 -.17918878E+02 0.33429956E+02 0.51889279E+02 0.51099893E-03 0.0000E+00 0.9000E+01
       21  1    1    2  501  502 -.76917166E+01 0.23338807E+01 0.10438008E+02 0.13195606E+02 0.75000000E+00 0.0000E+00 0.9000E+01
#aMCatNLO 2  0  0  2  1 0.80380037E+01 0.00000000E+00  9  5  0 0.00000000E+00 0.00000000E+00 0.00000000E+00 0.00000000E+00 0.00000000E+00
  <rwgt>
   <wgt id='1001'> -.15478E+04 </wgt>
   <wgt id='1002'> -.13863E+04 </wgt>
   <wgt id='1003'> -.17534E+04 </wgt>
   <wgt id='1004'> -.17425E+04 </wgt>
   <wgt id='1005'> -.15606E+04 </wgt>
   <wgt id='1006'> -.19739E+04 </wgt>
   <wgt id='1007'> -.13253E+04 </wgt>
   <wgt id='1008'> -.11870E+04 </wgt>
   <wgt id='1009'> -.15012E+04 </wgt>
  </rwgt>
  </event>
  <event>
  5      0 0.15478455E+04 0.18874933E+02 0.75467711E-02 0.14199264E+00
       -3 -1    0    0    0  501 0.00000000E+00 0.00000000E+00 0.24899353E+02 0.24904373E+02 0.50000000E+00 0.0000E+00 0.9000E+01
        3 -1    0    0  501    0 0.00000000E+00 0.00000000E+00 -.80131743E+02 0.80133303E+02 0.50000000E+00 0.0000E+00 0.9000E+01
       23  2    1    2    0    0 0.00000000E+00 0.00000000E+00 -.55232390E+02 0.10503768E+03 0.89343698E+02 0.0000E+00 0.0000E+00
      -11  1    3    3    0    0 0.26519730E+02 -.14044949E+01 0.14614423E+02 0.30312539E+02 0.51099893E-03 0.0000E+00 0.9000E+01
       11  1    3    3    0    0 -.26519730E+02 0.14044949E+01 -.69846813E+02 0.74725136E+02 0.51099893E-03 0.0000E+00 0.9000E+01
#aMCatNLO 1  0  0  1  2 0.62813235E+01 0.00000000E+00  9  5  0 0.00000000E+00 0.00000000E+00 0.00000000E+00 0.00000000E+00 0.00000000E+00
  <rwgt>
   <wgt id='1001'> 0.15479E+04 </wgt>
   <wgt id='1002'> 0.14757E+04 </wgt>
   <wgt id='1003'> 0.16404E+04 </wgt>
   <wgt id='1004'> 0.17501E+04 </wgt>
   <wgt id='1005'> 0.16717E+04 </wgt>
   <wgt id='1006'> 0.18507E+04 </wgt>
   <wgt id='1007'> 0.13063E+04 </wgt>
   <wgt id='1008'> 0.12427E+04 </wgt>
   <wgt id='1009'> 0.13880E+04 </wgt>
  </rwgt>
  </event>
  <event>
  6      0 0.15478455E+04 0.45859507E+02 0.75467711E-02 0.12370175E+00
        2 -1    0    0  501    0 0.00000000E+00 0.00000000E+00 0.94561253E+03 0.94561259E+03 0.32000000E+00 0.0000E+00 0.9000E+01
       21 -1    0    0  502  501 0.00000000E+00 0.00000000E+00 -.67144303E+01 0.67561878E+01 0.75000000E+00 0.0000E+00 0.9000E+01
       23  2    1    2    0    0 -.35907555E+02 -.94677818E+00 0.86019305E+03 0.86585383E+03 0.92089703E+02 0.0000E+00 0.0000E+00
      -11  1    3    3    0    0 0.19752568E+02 0.29137300E+02 0.34458321E+03 0.34637658E+03 0.51099893E-03 0.0000E+00 0.9000E+01
       11  1    3    3    0    0 -.55660123E+02 -.30084078E+02 0.51560984E+03 0.51947725E+03 0.51099893E-03 0.0000E+00 0.9000E+01
        2  1    1    2  502    0 0.35907555E+02 0.94677818E+00 0.78705053E+02 0.86514951E+02 0.32000000E+00 0.0000E+00 0.9000E+01
#aMCatNLO 2  0  0  2  1 0.35920035E+02 0.00000000E+00  9  5  0 0.00000000E+00 0.00000000E+00 0.00000000E+00 0.00000000E+00 0.00000000E+00
  <rwgt>
   <wgt id='1001'> 0.15479E+04 </wgt>
   <wgt id='1002'> 0.13950E+04 </wgt>
   <wgt id='1003'> 0.17394E+04 </wgt>
   <wgt id='1004'> 0.16021E+04 </wgt>
   <wgt id='1005'> 0.14440E+04 </wgt>
   <wgt id='1006'> 0.18004E+04 </wgt>
   <wgt id='1007'> 0.14639E+04 </wgt>
   <wgt id='1008'> 0.13194E+04 </wgt>
   <wgt id='1009'> 0.16452E+04 </wgt>
  </rwgt>
  </event>
  <event>
  6      0 0.15478455E+04 0.30000000E+02 0.75467711E-02 0.14125044E+00
        2 -1    0    0  501    0 0.00000000E+00 0.00000000E+00 0.46531357E+03 0.46531368E+03 0.32000000E+00 0.0000E+00 0.9000E+01
       21 -1    0    0  502  501 0.00000000E+00 0.00000000E+00 -.38330990E+02 0.38338327E+02 0.75000000E+00 0.0000E+00 0.9000E+01
       23  2    1    2    0    0 0.20367399E+02 -.19890994E+02 0.45407435E+03 0.46435125E+03 0.92887509E+02 0.0000E+00 0.0000E+00
      -11  1    3    3    0    0 0.12410784E+02 -.89904754E+00 0.29904309E+01 0.12797599E+02 0.51099893E-03 0.0000E+00 0.9000E+01
       11  1    3    3    0    0 0.79566148E+01 -.18991946E+02 0.45108392E+03 0.45155366E+03 0.51099893E-03 0.0000E+00 0.9000E+01
        2  1    1    2  502    0 -.20367399E+02 0.19890994E+02 -.27091772E+02 0.39300751E+02 0.32000000E+00 0.0000E+00 0.9000E+01
#aMCatNLO 2  0  0  2  1 0.28468976E+02 0.00000000E+00  9  5  0 0.00000000E+00 0.00000000E+00 0.00000000E+00 0.00000000E+00 0.00000000E+00
  <rwgt>
   <wgt id='1001'> 0.15479E+04 </wgt>
   <wgt id='1002'> 0.13748E+04 </wgt>
   <wgt id='1003'> 0.17725E+04 </wgt>
   <wgt id='1004'> 0.15758E+04 </wgt>
   <wgt id='1005'> 0.13997E+04 </wgt>
   <wgt id='1006'> 0.18044E+04 </wgt>
   <wgt id='1007'> 0.14870E+04 </wgt>
   <wgt id='1008'> 0.13209E+04 </wgt>
   <wgt id='1009'> 0.17028E+04 </wgt>
  </rwgt>
  </event>
  <event>
  4      0 0.15478455E+04 0.30000000E+02 0.75467711E-02 0.11505787E+00
        1 -1    0    0  501    0 0.00000000E+00 0.00000000E+00 0.52668168E+02 0.52669140E+02 0.32000000E+00 0.0000E+00 0.9000E+01
       -1 -1    0    0    0  501 0.00000000E+00 0.00000000E+00 -.42656504E+01 0.42776364E+01 0.32000000E+00 0.0000E+00 0.9000E+01
      -11  1    1    2    0    0 0.28446353E+01 0.90794808E+01 0.46214486E+02 0.47183764E+02 0.51099893E-03 0.0000E+00 0.9000E+01
       11  1    1    2    0    0 -.28446353E+01 -.90794808E+01 0.21880316E+01 0.97630120E+01 0.51099893E-03 0.0000E+00 0.9000E+01
#aMCatNLO 1  0  0  1  2 0.10764807E+03 0.00000000E+00  9  5  0 0.00000000E+00 0.00000000E+00 0.00000000E+00 0.00000000E+00 0.00000000E+00
  <rwgt>
   <wgt id='1001'> 0.15478E+04 </wgt>
   <wgt id='1002'> 0.15304E+04 </wgt>
   <wgt id='1003'> 0.15725E+04 </wgt>
   <wgt id='1004'> 0.19501E+04 </wgt>
   <wgt id='1005'> 0.19400E+04 </wgt>
   <wgt id='1006'> 0.19644E+04 </wgt>
   <wgt id='1007'> 0.11424E+04 </wgt>
   <wgt id='1008'> 0.11198E+04 </wgt>
   <wgt id='1009'> 0.11743E+04 </wgt>
  </rwgt>
  </event>
  <event>
  5      0 0.15478455E+04 0.41208969E+02 0.75467711E-02 0.11647548E+00
       -2 -1    0    0    0  501 0.00000000E+00 0.00000000E+00 0.23222646E+02 0.23224851E+02 0.32000000E+00 0.0000E+00 0.9000E+01
        2 -1    0    0  501    0 0.00000000E+00 0.00000000E+00 -.95604972E+02 0.95605507E+02 0.32000000E+00 0.0000E+00 0.9000E+01
       23  2    1    2    0    0 0.00000000E+00 0.00000000E+00 -.72382325E+02 0.11883036E+03 0.94241461E+02 0.0000E+00 0.0000E+00
      -11  1    3    3    0    0 -.88619419E+01 -.40244815E+02 -.73775826E+01 0.41864160E+02 0.51099893E-03 0.0000E+00 0.9000E+01
       11  1    3    3    0    0 0.88619419E+01 0.40244815E+02 -.65004743E+02 0.76966199E+02 0.51099893E-03 0.0000E+00 0.9000E+01
#aMCatNLO 1  0  0  1  1 0.85050224E+02 0.00000000E+00  9  5  0 0.00000000E+00 0.00000000E+00 0.00000000E+00 0.00000000E+00 0.00000000E+00
  <rwgt>
   <wgt id='1001'> 0.15479E+04 </wgt>
   <wgt id='1002'> 0.15177E+04 </wgt>
   <wgt id='1003'> 0.15864E+04 </wgt>
   <wgt id='1004'> 0.13478E+04 </wgt>
   <wgt id='1005'> 0.13526E+04 </wgt>
   <wgt id='1006'> 0.13416E+04 </wgt>
   <wgt id='1007'> 0.17110E+04 </wgt>
   <wgt id='1008'> 0.16477E+04 </wgt>
   <wgt id='1009'> 0.17919E+04 </wgt>
  </rwgt>
  </event>
  <event>
  5      0 0.15478455E+04 0.38997744E+02 0.75467711E-02 0.13469233E+00
       -1 -1    0    0    0  501 0.00000000E+00 0.00000000E+00 0.52741056E+02 0.52742026E+02 0.32000000E+00 0.0000E+00 0.9000E+01
        1 -1    0    0  501    0 0.00000000E+00 0.00000000E+00 -.42872079E+02 0.42873274E+02 0.32000000E+00 0.0000E+00 0.9000E+01
       23  2    1    2    0    0 0.00000000E+00 0.00000000E+00 0.98689763E+01 0.95615300E+02 0.95104621E+02 0.0000E+00 0.0000E+00
      -11  1    3    3    0    0 0.37815774E+02 -.95284461E+01 0.32290857E+02 0.50631250E+02 0.51099893E-03 0.0000E+00 0.9000E+01
       11  1    3    3    0    0 -.37815774E+02 0.95284461E+01 -.22421880E+02 0.44984050E+02 0.51099893E-03 0.0000E+00 0.9000E+01
#aMCatNLO 1  0  0  2  2 0.23525559E+01 0.00000000E+00  9  5  0 0.00000000E+00 0.00000000E+00 0.00000000E+00 0.00000000E+00 0.00000000E+00
  <rwgt>
   <wgt id='1001'> 0.15479E+04 </wgt>
   <wgt id='1002'> 0.15188E+04 </wgt>
   <wgt id='1003'> 0.15845E+04 </wgt>
   <wgt id='1004'> 0.16787E+04 </wgt>
   <wgt id='1005'> 0.16502E+04 </wgt>
   <wgt id='1006'> 0.17147E+04 </wgt>
   <wgt id='1007'> 0.13842E+04 </wgt>
   <wgt id='1008'> 0.13557E+04 </wgt>
   <wgt id='1009'> 0.14201E+04 </wgt>
  </rwgt>
  </event>
  <event>
  5      0 0.15478455E+04 0.30259934E+02 0.75467711E-02 0.11542696E+00
       -1 -1    0    0    0  501 0.00000000E+00 0.00000000E+00 0.47199004E+02 0.47200089E+02 0.32000000E+00 0.0000E+00 0.9000E+01
        1 -1    0    0  501    0 0.00000000E+00 0.00000000E+00 -.44223130E+02 0.44224288E+02 0.32000000E+00 0.0000E+00 0.9000E+01
       23  2    1    2    0    0 0.00000000E+00 0.00000000E+00 0.29758738E+01 0.91424377E+02 0.91375932E+02 0.0000E+00 0.0000E+00
      -11  1    3    3    0    0 0.39931541E+01 -.29995305E+02 0.35736578E+02 0.46826986E+02 0.51099893E-03 0.0000E+00 0.9000E+01
       11  1    3    3    0    0 -.39931541E+01 0.29995305E+02 -.32760704E+02 0.44597391E+02 0.51099893E-03 0.0000E+00 0.9000E+01
#aMCatNLO 1  0  0  2  2 0.10407708E+03 0.00000000E+00  9  5  0 0.00000000E+00 0.00000000E+00 0.00000000E+00 0.00000000E+00 0.00000000E+00
  <rwgt>
   <wgt id='1001'> 0.15479E+04 </wgt>
   <wgt id='1002'> 0.14948E+04 </wgt>
   <wgt id='1003'> 0.16168E+04 </wgt>
   <wgt id='1004'> 0.13883E+04 </wgt>
   <wgt id='1005'> 0.13677E+04 </wgt>
   <wgt id='1006'> 0.14151E+04 </wgt>
   <wgt id='1007'> 0.16669E+04 </wgt>
   <wgt id='1008'> 0.15836E+04 </wgt>
   <wgt id='1009'> 0.17751E+04 </wgt>
  </rwgt>
  </event>
  <event>
  6      0 0.15478455E+04 0.49005747E+02 0.75467711E-02 0.11674942E+00
       -2 -1    0    0    0  501 0.00000000E+00 0.00000000E+00 0.14090519E+03 0.14090556E+03 0.32000000E+00 0.0000E+00 0.9000E+01
        2 -1    0    0  502    0 0.00000000E+00 0.00000000E+00 -.98435203E+02 0.98435723E+02 0.32000000E+00 0.0000E+00 0.9000E+01
       23  2    1    2    0    0 -.92902573E+01 -.72801511E+02 0.89297849E+02 0.15227935E+03 0.99138922E+02 0.0000E+00 0.0000E+00
      -11  1    3    3    0    0 -.53037784E+02 -.50788725E+02 0.44232450E+02 0.85726371E+02 0.51099893E-03 0.0000E+00 0.9000E+01
       11  1    3    3    0    0 0.43747527E+02 -.22012786E+02 0.45065399E+02 0.66552979E+02 0.51099893E-03 0.0000E+00 0.9000E+01
       21  1    1    2  502  501 0.92902573E+01 0.72801511E+02 -.46827858E+02 0.87061930E+02 0.75000000E+00 0.0000E+00 0.9000E+01
#aMCatNLO 2  0  0  2  1 0.73391886E+02 0.00000000E+00  9  5  0 0.00000000E+00 0.00000000E+00 0.00000000E+00 0.00000000E+00 0.00000000E+00
  <rwgt>
   <wgt id='1001'> 0.15479E+04 </wgt>
   <wgt id='1002'> 0.14054E+04 </wgt>
   <wgt id='1003'> 0.17268E+04 </wgt>
   <wgt id='1004'> 0.15751E+04 </wgt>
   <wgt id='1005'> 0.14301E+04 </wgt>
   <wgt id='1006'> 0.17572E+04 </wgt>
   <wgt id='1007'> 0.15066E+04 </wgt>
   <wgt id='1008'> 0.13680E+04 </wgt>
   <wgt id='1009'> 0.16808E+04 </wgt>
  </rwgt>
  </event>
  <event>
  5      0 -.15478455E+04 0.19261603E+02 0.75467711E-02 0.13273989E+00
       -2 -1    0    0    0  501 0.00000000E+00 0.00000000E+00 0.21333166E+01 0.21571833E+01 0.32000000E+00 0.0000E+00 0.9000E+01
        2 -1    0    0  501    0 0.00000000E+00 0.00000000E+00 -.86200225E+03 0.86200231E+03 0.32000000E+00 0.0000E+00 0.9000E+01
       23  2    1    2    0    0 0.00000000E+00 0.00000000E+00 -.85986894E+03 0.86415950E+03 0.86006082E+02 0.0000E+00 0.0000E+00
      -11  1    3    3    0    0 0.37676529E+02 0.20677185E+02 -.44481960E+03 0.44689098E+03 0.51099893E-03 0.0000E+00 0.9000E+01
       11  1    3    3    0    0 -.37676529E+02 -.20677185E+02 -.41504933E+03 0.41726852E+03 0.51099893E-03 0.0000E+00 0.9000E+01
#aMCatNLO 1  0  0  1  2 0.15366896E+01 0.00000000E+00  9  5  0 0.00000000E+00 0.00000000E+00 0.00000000E+00 0.00000000E+00 0.00000000E+00
  <rwgt>
   <wgt id='1001'> -.15479E+04 </wgt>
   <wgt id='1002'> -.12584E+04 </wgt>
   <wgt id='1003'> -.19182E+04 </wgt>
   <wgt id='1004'> -.24608E+04 </wgt>
   <wgt id='1005'> -.20633E+04 </wgt>
   <wgt id='1006'> -.29694E+04 </wgt>
   <wgt id='1007'> -.71175E+03 </wgt>
   <wgt id='1008'> -.52414E+03 </wgt>
   <wgt id='1009'> -.95203E+03 </wgt>
  </rwgt>
  </event>
  <event>
  4      0 0.15478455E+04 0.50133610E+02 0.75467711E-02 0.11466684E+00
       -1 -1    0    0    0  501 0.00000000E+00 0.00000000E+00 0.12888523E+02 0.12892495E+02 0.32000000E+00 0.0000E+00 0.9000E+01
        1 -1    0    0  501    0 0.00000000E+00 0.00000000E+00 -.66664833E+03 0.66664840E+03 0.32000000E+00 0.0000E+00 0.9000E+01
      -11  1    1    2    0    0 0.87246481E+02 -.31127998E+02 -.31387636E+03 0.32726025E+03 0.51099893E-03 0.0000E+00 0.9000E+01
       11  1    1    2    0    0 -.87246481E+02 0.31127998E+02 -.33988345E+03 0.35228065E+03 0.51099893E-03 0.0000E+00 0.9000E+01
#aMCatNLO 1  0  0  2  1 0.32997744E+02 0.00000000E+00  9  5  0 0.00000000E+00 0.00000000E+00 0.00000000E+00 0.00000000E+00 0.00000000E+00
  <rwgt>
   <wgt id='1001'> 0.15479E+04 </wgt>
   <wgt id='1002'> 0.14912E+04 </wgt>
   <wgt id='1003'> 0.16197E+04 </wgt>
   <wgt id='1004'> 0.19832E+04 </wgt>
   <wgt id='1005'> 0.18882E+04 </wgt>
   <wgt id='1006'> 0.21030E+04 </wgt>
   <wgt id='1007'> 0.11379E+04 </wgt>
   <wgt id='1008'> 0.11162E+04 </wgt>
   <wgt id='1009'> 0.11658E+04 </wgt>
  </rwgt>
  </event>
  <event>
  5      0 0.15478455E+04 0.30000000E+02 0.75467711E-02 0.12179072E+00
       -1 -1    0    0    0  501 0.00000000E+00 0.00000000E+00 0.14222615E+02 0.14226214E+02 0.32000000E+00 0.0000E+00 0.9000E+01
        1 -1    0    0  501    0 0.00000000E+00 0.00000000E+00 -.14946780E+03 0.14946815E+03 0.32000000E+00 0.0000E+00 0.9000E+01
       23  2    1    2    0    0 0.00000000E+00 0.00000000E+00 -.13524519E+03 0.16369436E+03 0.92220293E+02 0.0000E+00 0.0000E+00
      -11  1    3    3    0    0 0.29238682E+02 -.36819723E+01 -.46728881E+01 0.29837783E+02 0.51099893E-03 0.0000E+00 0.9000E+01
       11  1    3    3    0    0 -.29238682E+02 0.36819723E+01 -.13057230E+03 0.13385658E+03 0.51099893E-03 0.0000E+00 0.9000E+01
#aMCatNLO 1  0  0  2  1 0.66531691E+02 0.00000000E+00  9  5  0 0.00000000E+00 0.00000000E+00 0.00000000E+00 0.00000000E+00 0.00000000E+00
  <rwgt>
   <wgt id='1001'> 0.15479E+04 </wgt>
   <wgt id='1002'> 0.15493E+04 </wgt>
   <wgt id='1003'> 0.15460E+04 </wgt>
   <wgt id='1004'> 0.17125E+04 </wgt>
   <wgt id='1005'> 0.17160E+04 </wgt>
   <wgt id='1006'> 0.17079E+04 </wgt>
   <wgt id='1007'> 0.13521E+04 </wgt>
   <wgt id='1008'> 0.13519E+04 </wgt>
   <wgt id='1009'> 0.13524E+04 </wgt>
  </rwgt>
  </event>
  <event>
  5      0 0.15478455E+04 0.30271744E+02 0.75467711E-02 0.12087914E+00
        2 -1    0    0  501    0 0.00000000E+00 0.00000000E+00 0.41087869E+02 0.41089116E+02 0.32000000E+00 0.0000E+00 0.9000E+01
       -2 -1    0    0    0  501 0.00000000E+00 0.00000000E+00 -.55633722E+02 0.55634642E+02 0.32000000E+00 0.0000E+00 0.9000E+01
       23  2    1    2    0    0 0.00000000E+00 0.00000000E+00 -.14545852E+02 0.96723758E+02 0.95623760E+02 0.0000E+00 0.0000E+00
      -11  1    3    3    0    0 -.27233668E+02 0.13217633E+02 -.44706716E+02 0.53991379E+02 0.51099893E-03 0.0000E+00 0.9000E+01
       11  1    3    3    0    0 0.27233668E+02 -.13217633E+02 0.30160864E+02 0.42732379E+02 0.51099893E-03 0.0000E+00 0.9000E+01
#aMCatNLO 1  0  0  1  1 0.66368128E+02 0.00000000E+00  9  5  0 0.00000000E+00 0.00000000E+00 0.00000000E+00 0.00000000E+00 0.00000000E+00
  <rwgt>
   <wgt id='1001'> 0.15479E+04 </wgt>
   <wgt id='1002'> 0.15482E+04 </wgt>
   <wgt id='1003'> 0.15475E+04 </wgt>
   <wgt id='1004'> 0.17021E+04 </wgt>
   <wgt id='1005'> 0.17043E+04 </wgt>
   <wgt id='1006'> 0.16993E+04 </wgt>
   <wgt id='1007'> 0.13616E+04 </wgt>
   <wgt id='1008'> 0.13604E+04 </wgt>
   <wgt id='1009'> 0.13631E+04 </wgt>
  </rwgt>
  </event>
  <event>
  6      0 0.15478455E+04 0.30233669E+02 0.75467711E-02 0.13247965E+00
        1 -1    0    0  501    0 0.00000000E+00 0.00000000E+00 0.91307320E+02 0.91307881E+02 0.32000000E+00 0.0000E+00 0.9000E+01
       -1 -1    0    0    0  502 0.00000000E+00 0.00000000E+00 -.54051965E+02 0.54052913E+02 0.32000000E+00 0.0000E+00 0.9000E+01
       23  2    1    2    0    0 0.19619898E+02 -.14144221E+02 0.61634458E+02 0.11101108E+03 0.89104742E+02 0.0000E+00 0.0000E+00
      -11  1    3    3    0    0 0.39197937E+02 0.15674093E+01 -.52425115E+01 0.39578011E+02 0.51099893E-03 0.0000E+00 0.9000E+01
       11  1    3    3    0    0 -.19578039E+02 -.15711630E+02 0.66876969E+02 0.71433073E+02 0.51099893E-03 0.0000E+00 0.9000E+01
       21  1    1    2  501  502 -.19619898E+02 0.14144221E+02 -.24379103E+02 0.34349710E+02 0.75000000E+00 0.0000E+00 0.9000E+01
#aMCatNLO 2  0  0  2  1 0.24186761E+02 0.00000000E+00  9  5  0 0.00000000E+00 0.00000000E+00 0.00000000E+00 0.00000000E+00 0.00000000E+00
  <rwgt>
   <wgt id='1001'> 0.15478E+04 </wgt>
   <wgt id='1002'> 0.13849E+04 </wgt>
   <wgt id='1003'> 0.17557E+04 </wgt>
   <wgt id='1004'> 0.16596E+04 </wgt>
   <wgt id='1005'> 0.14849E+04 </wgt>
   <wgt id='1006'> 0.18825E+04 </wgt>
   <wgt id='1007'> 0.14097E+04 </wgt>
   <wgt id='1008'> 0.12613E+04 </wgt>
   <wgt id='1009'> 0.15989E+04 </wgt>
  </rwgt>
  </event>
  <event>
  5      0 0.15478455E+04 0.41430761E+02 0.75467711E-02 0.10693012E+00
       -1 -1    0    0    0  501 0.00000000E+00 0.00000000E+00 0.61729614E+03 0.61729622E+03 0.32000000E+00 0.0000E+00 0.9000E+01
        1 -1    0    0  501    0 0.00000000E+00 0.00000000E+00 -.33324730E+01 0.33478017E+01 0.32000000E+00 0.0000E+00 0.9000E+01
       23  2    1    2    0    0 0.00000000E+00 0.00000000E+00 0.61396367E+03 0.62064403E+03 0.90816414E+02 0.0000E+00 0.0000E+00
      -11  1    3    3    0    0 0.41251576E+02 -.38490819E+01 0.43399178E+03 0.43596487E+03 0.51099893E-03 0.0000E+00 0.9000E+01
       11  1    3    3    0    0 -.41251576E+02 0.38490819E+01 0.17997189E+03 0.18467915E+03 0.51099893E-03 0.0000E+00 0.9000E+01
#aMCatNLO 1  0  0  2  2 0.17340835E+03 0.00000000E+00  9  5  0 0.00000000E+00 0.00000000E+00 0.00000000E+00 0.00000000E+00 0.00000000E+00
  <rwgt>
   <wgt id='1001'> 0.15479E+04 </wgt>
   <wgt id='1002'> 0.14839E+04 </wgt>
   <wgt id='1003'> 0.16297E+04 </wgt>
   <wgt id='1004'> 0.13186E+04 </wgt>
   <wgt id='1005'> 0.12865E+04 </wgt>
   <wgt id='1006'> 0.13595E+04 </wgt>
   <wgt id='1007'> 0.17835E+04 </wgt>
   <wgt id='1008'> 0.16852E+04 </wgt>
   <wgt id='1009'> 0.19091E+04 </wgt>
  </rwgt>
  </event>
  <event>
  6      0 0.15478455E+04 0.37086292E+02 0.75467711E-02 0.12834234E+00
       21 -1    0    0  502  501 0.00000000E+00 0.00000000E+00 0.13016215E+02 0.13037805E+02 0.75000000E+00 0.0000E+00 0.9000E+01
        1 -1    0    0  501    0 0.00000000E+00 0.00000000E+00 -.29989874E+03 0.29989891E+03 0.32000000E+00 0.0000E+00 0.9000E+01
       23  2    1    2    0    0 -.40060074E+01 -.28279307E+02 -.23384820E+03 0.25269961E+03 0.91413037E+02 0.0000E+00 0.0000E+00
      -11  1    3    3    0    0 0.24611556E+02 0.13280811E+02 -.16492542E+03 0.16727972E+03 0.51099893E-03 0.0000E+00 0.9000E+01
       11  1    3    3    0    0 -.28617564E+02 -.41560118E+02 -.68922779E+02 0.85419891E+02 0.51099893E-03 0.0000E+00 0.9000E+01
        1  1    1    2  502    0 0.40060074E+01 0.28279307E+02 -.53034327E+02 0.60237111E+02 0.32000000E+00 0.0000E+00 0.9000E+01
#aMCatNLO 2  0  0  1  2 0.28561641E+02 0.00000000E+00  9  5  0 0.00000000E+00 0.00000000E+00 0.00000000E+00 0.00000000E+00 0.00000000E+00
  <rwgt>
   <wgt id='1001'> 0.15479E+04 </wgt>
   <wgt id='1002'> 0.13897E+04 </wgt>
   <wgt id='1003'> 0.17480E+04 </wgt>
   <wgt id='1004'> 0.16404E+04 </wgt>
   <wgt id='1005'> 0.14727E+04 </wgt>
   <wgt id='1006'> 0.18526E+04 </wgt>
   <wgt id='1007'> 0.14235E+04 </wgt>
   <wgt id='1008'> 0.12779E+04 </wgt>
   <wgt id='1009'> 0.16075E+04 </wgt>
  </rwgt>
  </event>
  <event>
  5      0 0.15478455E+04 0.30000000E+02 0.75467711E-02 0.12450005E+00
       -2 -1    0    0    0  501 0.00000000E+00 0.00000000E+00 0.13165615E+03 0.13165654E+03 0.32000000E+00 0.0000E+00 0.9000E+01
        2 -1    0    0  501    0 0.00000000E+00 0.00000000E+00 -.15678718E+02 0.15681984E+02 0.32000000E+00 0.0000E+00 0.9000E+01
       23  2    1    2    0    0 0.00000000E+00 0.00000000E+00 0.11597743E+03 0.14733852E+03 0.90872853E+02 0.0000E+00 0.0000E+00
      -11  1    3    3    0    0 0.46880875E+01 -.12139012E+02 0.12857206E+03 0.12922890E+03 0.51099893E-03 0.0000E+00 0.9000E+01
       11  1    3    3    0    0 -.46880875E+01 0.12139012E+02 -.12594629E+02 0.18109623E+02 0.51099893E-03 0.0000E+00 0.9000E+01
#aMCatNLO 1  0  0  1  2 0.61910446E+02 0.00000000E+00  9  5  0 0.00000000E+00 0.00000000E+00 0.00000000E+00 0.00000000E+00 0.00000000E+00
  <rwgt>
   <wgt id='1001'> 0.15479E+04 </wgt>
   <wgt id='1002'> 0.14687E+04 </wgt>
   <wgt id='1003'> 0.16563E+04 </wgt>
   <wgt id='1004'> 0.15238E+04 </wgt>
   <wgt id='1005'> 0.14670E+04 </wgt>
   <wgt id='1006'> 0.16015E+04 </wgt>
   <wgt id='1007'> 0.15134E+04 </wgt>
   <wgt id='1008'> 0.14164E+04 </wgt>
   <wgt id='1009'> 0.16463E+04 </wgt>
  </rwgt>
  </event>
  <event>
  4      0 0.15478455E+04 0.18254638E+02 0.75467711E-02 0.16356155E+00
        2 -1    0    0  501    0 0.00000000E+00 0.00000000E+00 0.92453696E+02 0.92454250E+02 0.32000000E+00 0.0000E+00 0.9000E+01
       -2 -1    0    0    0  501 0.00000000E+00 0.00000000E+00 -.19921726E+02 0.19924296E+02 0.32000000E+00 0.0000E+00 0.9000E+01
      -11  1    1    2    0    0 0.11003256E+02 -.10799216E+01 0.90558867E+02 0.91231279E+02 0.51099893E-03 0.0000E+00 0.9000E+01
       11  1    1    2    0    0 -.11003256E+02 0.10799216E+01 -.18026897E+02 0.21147267E+02 0.51099893E-03 0.0000E+00 0.9000E+01
#aMCatNLO 1  0  0  1  2 0.68186401E+01 0.00000000E+00  9  5  0 0.00000000E+00 0.00000000E+00 0.00000000E+00 0.00000000E+00 0.00000000E+00
  <rwgt>
   <wgt id='1001'> 0.15478E+04 </wgt>
   <wgt id='1002'> 0.14419E+04 </wgt>
   <wgt id='1003'> 0.16865E+04 </wgt>
   <wgt id='1004'> 0.18293E+04 </wgt>
   <wgt id='1005'> 0.17038E+04 </wgt>
   <wgt id='1006'> 0.19940E+04 </wgt>
   <wgt id='1007'> 0.12934E+04 </wgt>
   <wgt id='1008'> 0.12011E+04 </wgt>
   <wgt id='1009'> 0.14148E+04 </wgt>
  </rwgt>
  </event>
  <event>
  5      0 0.15478455E+04 0.30000000E+02 0.75467711E-02 0.17879256E+00
       -1 -1    0    0    0  501 0.00000000E+00 0.00000000E+00 0.11761220E+01 0.12188778E+01 0.32000000E+00 0.0000E+00 0.9000E+01
        1 -1    0    0  501    0 0.00000000E+00 0.00000000E+00 -.15381701E+04 0.15381701E+04 0.32000000E+00 0.0000E+00 0.9000E+01
       23  2    1    2    0    0 0.00000000E+00 0.00000000E+00 -.15369939E+04 0.15393890E+04 0.85837282E+02 0.0000E+00 0.0000E+00
      -11  1    3    3    0    0 0.79482225E+01 -.15732540E-01 -.12116550E+02 0.14490868E+02 0.51099893E-03 0.0000E+00 0.9000E+01
       11  1    3    3    0    0 -.79482225E+01 0.15732540E-01 -.15248774E+04 0.15248981E+04 0.51099893E-03 0.0000E+00 0.9000E+01
#aMCatNLO 1  0  0  1  2 0.34879325E+01 0.00000000E+00  9  5  0 0.00000000E+00 0.00000000E+00 0.00000000E+00 0.00000000E+00 0.00000000E+00
  <rwgt>
   <wgt id='1001'> 0.15479E+04 </wgt>
   <wgt id='1002'> 0.14728E+04 </wgt>
   <wgt id='1003'> 0.16564E+04 </wgt>
   <wgt id='1004'> 0.17135E+04 </wgt>
   <wgt id='1005'> 0.16319E+04 </wgt>
   <wgt id='1006'> 0.18315E+04 </wgt>
   <wgt id='1007'> 0.13265E+04 </wgt>
   <wgt id='1008'> 0.12617E+04 </wgt>
   <wgt id='1009'> 0.14204E+04 </wgt>
  </rwgt>
  </event>
  <event>
  4      0 0.15478455E+04 0.30000000E+02 0.75467711E-02 0.13755092E+00
        2 -1    0    0  501    0 0.00000000E+00 0.00000000E+00 0.10355028E+04 0.10355028E+04 0.32000000E+00 0.0000E+00 0.9000E+01
       -2 -1    0    0    0  501 0.00000000E+00 0.00000000E+00 -.43438715E+00 0.53952961E+00 0.32000000E+00 0.0000E+00 0.9000E+01
      -11  1    1    2    0    0 0.16187428E+02 -.12343575E+02 0.73625341E+03 0.73653478E+03 0.51099893E-03 0.0000E+00 0.9000E+01
       11  1    1    2    0    0 -.16187428E+02 0.12343575E+02 0.29881500E+03 0.29950760E+03 0.51099893E-03 0.0000E+00 0.9000E+01
#aMCatNLO 1  0  0  2  2 0.24111661E+02 0.00000000E+00  9  5  0 0.00000000E+00 0.00000000E+00 0.00000000E+00 0.00000000E+00 0.00000000E+00
  <rwgt>
   <wgt id='1001'> 0.15478E+04 </wgt>
   <wgt id='1002'> 0.15477E+04 </wgt>
   <wgt id='1003'> 0.15481E+04 </wgt>
   <wgt id='1004'> 0.17723E+04 </wgt>
   <wgt id='1005'> 0.17743E+04 </wgt>
   <wgt id='1006'> 0.17696E+04 </wgt>
   <wgt id='1007'> 0.12949E+04 </wgt>
   <wgt id='1008'> 0.12932E+04 </wgt>
   <wgt id='1009'> 0.12972E+04 </wgt>
  </rwgt>
  </event>
  <event>
  5      0 0.15478455E+04 0.18371960E+02 0.75467711E-02 0.14006182E+00
       -2 -1    0    0    0  501 0.00000000E+00 0.00000000E+00 0.12957537E+03 0.12957576E+03 0.32000000E+00 0.0000E+00 0.9000E+01
        2 -1    0    0  501    0 0.00000000E+00 0.00000000E+00 -.14652310E+02 0.14655804E+02 0.32000000E+00 0.0000E+00 0.9000E+01
       23  2    1    2    0    0 0.00000000E+00 0.00000000E+00 0.11492306E+03 0.14423157E+03 0.87151798E+02 0.0000E+00 0.0000E+00
      -11  1    3    3    0    0 -.13795829E+02 -.25749284E+02 0.39499527E+01 0.29478003E+02 0.51099893E-03 0.0000E+00 0.9000E+01
       11  1    3    3    0    0 0.13795829E+02 0.25749284E+02 0.11097311E+03 0.11475357E+03 0.51099893E-03 0.0000E+00 0.9000E+01
#aMCatNLO 1  0  0  2  1 0.58708545E+01 0.00000000E+00  9  5  0 0.00000000E+00 0.00000000E+00 0.00000000E+00 0.00000000E+00 0.00000000E+00
  <rwgt>
   <wgt id='1001'> 0.15479E+04 </wgt>
   <wgt id='1002'> 0.15383E+04 </wgt>
   <wgt id='1003'> 0.15509E+04 </wgt>
   <wgt id='1004'> 0.13921E+04 </wgt>
   <wgt id='1005'> 0.14183E+04 </wgt>
   <wgt id='1006'> 0.13474E+04 </wgt>
   <wgt id='1007'> 0.16697E+04 </wgt>
   <wgt id='1008'> 0.16249E+04 </wgt>
   <wgt id='1009'> 0.17197E+04 </wgt>
  </rwgt>
  </event>
  <event>
  5      0 0.15478455E+04 0.20470421E+02 0.75467711E-02 0.13399523E+00
       -2 -1    0    0    0  501 0.00000000E+00 0.00000000E+00 0.98203383E+01 0.98255506E+01 0.32000000E+00 0.0000E+00 0.9000E+01
        2 -1    0    0  501    0 0.00000000E+00 0.00000000E+00 -.19696901E+03 0.19696927E+03 0.32000000E+00 0.0000E+00 0.9000E+01
       23  2    1    2    0    0 0.00000000E+00 0.00000000E+00 -.18714868E+03 0.20679482E+03 0.87974273E+02 0.0000E+00 0.0000E+00
      -11  1    3    3    0    0 0.27877205E+02 0.26235556E+02 -.14450357E+03 0.14948821E+03 0.51099893E-03 0.0000E+00 0.9000E+01
       11  1    3    3    0    0 -.27877205E+02 -.26235556E+02 -.42645101E+02 0.57306610E+02 0.51099893E-03 0.0000E+00 0.9000E+01
#aMCatNLO 1  0  0  2  1 0.60633806E+01 0.00000000E+00  9  5  0 0.00000000E+00 0.00000000E+00 0.00000000E+00 0.00000000E+00 0.00000000E+00
  <rwgt>
   <wgt id='1001'> 0.15479E+04 </wgt>
   <wgt id='1002'> 0.14986E+04 </wgt>
   <wgt id='1003'> 0.16077E+04 </wgt>
   <wgt id='1004'> 0.19970E+04 </wgt>
   <wgt id='1005'> 0.19122E+04 </wgt>
   <wgt id='1006'> 0.21024E+04 </wgt>
   <wgt id='1007'> 0.11738E+04 </wgt>
   <wgt id='1008'> 0.11505E+04 </wgt>
   <wgt id='1009'> 0.12009E+04 </wgt>
  </rwgt>
  </event>
  <event>
  5      0 0.15478455E+04 0.41499419E+02 0.75467711E-02 0.13338517E+00
       -3 -1    0    0    0  501 0.00000000E+00 0.00000000E+00 0.25729164E+03 0.25729213E+03 0.50000000E+00 0.0000E+00 0.9000E+01
        3 -1    0    0  501    0 0.00000000E+00 0.00000000E+00 -.82336074E+01 0.82487751E+01 0.50000000E+00 0.0000E+00 0.9000E+01
       23  2    1    2    0    0 0.00000000E+00 0.00000000E+00 0.24905803E+03 0.26554090E+03 0.92098135E+02 0.0000E+00 0.0000E+00
      -11  1    3    3    0    0 0.35984552E+01 -.41343112E+02 0.18207219E+03 0.18674176E+03 0.51099893E-03 0.0000E+00 0.9000E+01
       11  1    3    3    0    0 -.35984552E+01 0.41343112E+02 0.66985843E+02 0.78799143E+02 0.51099893E-03 0.0000E+00 0.9000E+01
#aMCatNLO 1  0  0  1  2 0.20358705E+01 0.00000000E+00  9  5  0 0.00000000E+00 0.00000000E+00 0.00000000E+00 0.00000000E+00 0.00000000E+00
  <rwgt>
   <wgt id='1001'> 0.15479E+04 </wgt>
   <wgt id='1002'> 0.15196E+04 </wgt>
   <wgt id='1003'> 0.15835E+04 </wgt>
   <wgt id='1004'> 0.16773E+04 </wgt>
   <wgt id='1005'> 0.16511E+04 </wgt>
   <wgt id='1006'> 0.17102E+04 </wgt>
   <wgt id='1007'> 0.13854E+04 </wgt>
   <wgt id='1008'> 0.13558E+04 </wgt>
   <wgt id='1009'> 0.14228E+04 </wgt>
  </rwgt>
  </event>
  <event>
  5      0 0.15478455E+04 0.30000000E+02 0.75467711E-02 0.15072286E+00
       -1 -1    0    0    0  501 0.00000000E+00 0.00000000E+00 0.98779180E+01 0.98830999E+01 0.32000000E+00 0.0000E+00 0.9000E+01
        1 -1    0    0  501    0 0.00000000E+00 0.00000000E+00 -.34334792E+03 0.34334807E+03 0.32000000E+00 0.0000E+00 0.9000E+01
       23  2    1    2    0    0 0.00000000E+00 0.00000000E+00 -.33347000E+03 0.35323117E+03 0.11649041E+03 0.0000E+00 0.0000E+00
      -11  1    3    3    0    0 -.10792729E+02 -.43193502E+00 0.68170739E+01 0.12772708E+02 0.51099893E-03 0.0000E+00 0.9000E+01
       11  1    3    3    0    0 0.10792729E+02 0.43193502E+00 -.34028707E+03 0.34045846E+03 0.51099893E-03 0.0000E+00 0.9000E+01
#aMCatNLO 1  0  0  1  2 0.17058601E+02 0.00000000E+00  9  5  0 0.00000000E+00 0.00000000E+00 0.00000000E+00 0.00000000E+00 0.00000000E+00
  <rwgt>
   <wgt id='1001'> 0.15479E+04 </wgt>
   <wgt id='1002'> 0.15341E+04 </wgt>
   <wgt id='1003'> 0.15669E+04 </wgt>
   <wgt id='1004'> 0.17516E+04 </wgt>
   <wgt id='1005'> 0.17386E+04 </wgt>
   <wgt id='1006'> 0.17698E+04 </wgt>
   <wgt id='1007'> 0.12967E+04 </wgt>
   <wgt id='1008'> 0.12834E+04 </wgt>
   <wgt id='1009'> 0.13152E+04 </wgt>
  </rwgt>
  </event>
  <event>
  5      0 0.15478455E+04 0.43557881E+02 0.75467711E-02 0.12342787E+00
        4 -1    0    0  501    0 0.00000000E+00 0.00000000E+00 0.63132184E+02 0.63151209E+02 0.15500000E+01 0.0000E+00 0.9000E+01
       -4 -1    0    0    0  501 0.00000000E+00 0.00000000E+00 -.31825642E+02 0.31863365E+02 0.15500000E+01 0.0000E+00 0.9000E+01
       23  2    1    2    0    0 0.00000000E+00 0.00000000E+00 0.31306542E+02 0.95014573E+02 0.89708805E+02 0.0000E+00 0.0000E+00
      -11  1    3    3    0    0 -.43291357E+02 0.48111771E+01 0.43135775E+01 0.43770948E+02 0.51099893E-03 0.0000E+00 0.9000E+01
       11  1    3    3    0    0 0.43291357E+02 -.48111771E+01 0.26992964E+02 0.51243625E+02 0.51099893E-03 0.0000E+00 0.9000E+01
#aMCatNLO 1  0  0  2  1 0.40318770E+02 0.00000000E+00  9  5  0 0.00000000E+00 0.00000000E+00 0.00000000E+00 0.00000000E+00 0.00000000E+00
  <rwgt>
   <wgt id='1001'> 0.15479E+04 </wgt>
   <wgt id='1002'> 0.15480E+04 </wgt>
   <wgt id='1003'> 0.15478E+04 </wgt>
   <wgt id='1004'> 0.18638E+04 </wgt>
   <wgt id='1005'> 0.18657E+04 </wgt>
   <wgt id='1006'> 0.18615E+04 </wgt>
   <wgt id='1007'> 0.11979E+04 </wgt>
   <wgt id='1008'> 0.11968E+04 </wgt>
   <wgt id='1009'> 0.11992E+04 </wgt>
  </rwgt>
  </event>
  <event>
  5      0 0.15478455E+04 0.16323851E+02 0.75467711E-02 0.16870704E+00
        2 -1    0    0  501    0 0.00000000E+00 0.00000000E+00 0.73763215E+03 0.73763222E+03 0.32000000E+00 0.0000E+00 0.9000E+01
       -2 -1    0    0    0  501 0.00000000E+00 0.00000000E+00 -.26887088E+01 0.27076844E+01 0.32000000E+00 0.0000E+00 0.9000E+01
       23  2    1    2    0    0 0.00000000E+00 0.00000000E+00 0.73494344E+03 0.74033990E+03 0.89226181E+02 0.0000E+00 0.0000E+00
      -11  1    3    3    0    0 -.58698848E+01 0.66119032E+01 0.46440475E+01 0.99869910E+01 0.51099893E-03 0.0000E+00 0.9000E+01
       11  1    3    3    0    0 0.58698848E+01 -.66119032E+01 0.73029939E+03 0.73035291E+03 0.51099893E-03 0.0000E+00 0.9000E+01
#aMCatNLO 1  0  0  2  1 0.64649986E+01 0.00000000E+00  9  5  0 0.00000000E+00 0.00000000E+00 0.00000000E+00 0.00000000E+00 0.00000000E+00
  <rwgt>
   <wgt id='1001'> 0.15479E+04 </wgt>
   <wgt id='1002'> 0.15619E+04 </wgt>
   <wgt id='1003'> 0.14213E+04 </wgt>
   <wgt id='1004'> 0.89099E+03 </wgt>
   <wgt id='1005'> 0.10315E+04 </wgt>
   <wgt id='1006'> 0.57113E+03 </wgt>
   <wgt id='1007'> 0.21908E+04 </wgt>
   <wgt id='1008'> 0.20722E+04 </wgt>
   <wgt id='1009'> 0.22707E+04 </wgt>
  </rwgt>
  </event>
  <event>
  6      0 0.15478455E+04 0.30000000E+02 0.75467711E-02 0.14666894E+00
       21 -1    0    0  502  501 0.00000000E+00 0.00000000E+00 0.17719025E+03 0.17719183E+03 0.75000000E+00 0.0000E+00 0.9000E+01
        2 -1    0    0  501    0 0.00000000E+00 0.00000000E+00 -.17841989E+02 0.17844858E+02 0.32000000E+00 0.0000E+00 0.9000E+01
       23  2    1    2    0    0 -.12225217E+02 -.74384592E+00 0.15725249E+03 0.18260673E+03 0.92015561E+02 0.0000E+00 0.0000E+00
      -11  1    3    3    0    0 0.10964100E+01 -.16955422E+02 -.59941003E+01 0.18017150E+02 0.51099893E-03 0.0000E+00 0.9000E+01
       11  1    3    3    0    0 -.13321627E+02 0.16211576E+02 0.16324659E+03 0.16458958E+03 0.51099893E-03 0.0000E+00 0.9000E+01
        2  1    1    2  502    0 0.12225217E+02 0.74384592E+00 0.20957654E+01 0.12429958E+02 0.32000000E+00 0.0000E+00 0.9000E+01
#aMCatNLO 2  0  0  1  1 0.12247826E+02 0.00000000E+00  9  5  0 0.00000000E+00 0.00000000E+00 0.00000000E+00 0.00000000E+00 0.00000000E+00
  <rwgt>
   <wgt id='1001'> 0.15479E+04 </wgt>
   <wgt id='1002'> 0.13687E+04 </wgt>
   <wgt id='1003'> 0.17829E+04 </wgt>
   <wgt id='1004'> 0.16192E+04 </wgt>
   <wgt id='1005'> 0.14318E+04 </wgt>
   <wgt id='1006'> 0.18652E+04 </wgt>
   <wgt id='1007'> 0.14406E+04 </wgt>
   <wgt id='1008'> 0.12739E+04 </wgt>
   <wgt id='1009'> 0.16595E+04 </wgt>
  </rwgt>
  </event>
  <event>
  5      0 0.15478455E+04 0.34071541E+02 0.75467711E-02 0.13350331E+00
        2 -1    0    0  501    0 0.00000000E+00 0.00000000E+00 0.25701687E+02 0.25703679E+02 0.32000000E+00 0.0000E+00 0.9000E+01
       -2 -1    0    0    0  501 0.00000000E+00 0.00000000E+00 -.79164836E+02 0.79165483E+02 0.32000000E+00 0.0000E+00 0.9000E+01
       23  2    1    2    0    0 0.00000000E+00 0.00000000E+00 -.53463149E+02 0.10486916E+03 0.90217697E+02 0.0000E+00 0.0000E+00
      -11  1    3    3    0    0 0.28426347E+01 -.33952751E+02 0.76318512E+01 0.34915828E+02 0.51099893E-03 0.0000E+00 0.9000E+01
       11  1    3    3    0    0 -.28426347E+01 0.33952751E+02 -.61095000E+02 0.69953334E+02 0.51099893E-03 0.0000E+00 0.9000E+01
#aMCatNLO 1  0  0  2  1 0.15451312E+02 0.00000000E+00  9  5  0 0.00000000E+00 0.00000000E+00 0.00000000E+00 0.00000000E+00 0.00000000E+00
  <rwgt>
   <wgt id='1001'> 0.15479E+04 </wgt>
   <wgt id='1002'> 0.15928E+04 </wgt>
   <wgt id='1003'> 0.14898E+04 </wgt>
   <wgt id='1004'> 0.16951E+04 </wgt>
   <wgt id='1005'> 0.17472E+04 </wgt>
   <wgt id='1006'> 0.16280E+04 </wgt>
   <wgt id='1007'> 0.13692E+04 </wgt>
   <wgt id='1008'> 0.14067E+04 </wgt>
   <wgt id='1009'> 0.13207E+04 </wgt>
  </rwgt>
  </event>
  <event>
  4      0 0.15478455E+04 0.30000000E+02 0.75467711E-02 0.15941189E+00
       -2 -1    0    0    0  501 0.00000000E+00 0.00000000E+00 0.14456707E+02 0.14460248E+02 0.32000000E+00 0.0000E+00 0.9000E+01
        2 -1    0    0  501    0 0.00000000E+00 0.00000000E+00 -.16146334E+02 0.16149504E+02 0.32000000E+00 0.0000E+00 0.9000E+01
      -11  1    1    2    0    0 0.92999034E+01 -.81162417E+01 -.98676730E+01 0.15802929E+02 0.51099893E-03 0.0000E+00 0.9000E+01
       11  1    1    2    0    0 -.92999034E+01 0.81162417E+01 0.81780461E+01 0.14806823E+02 0.51099893E-03 0.0000E+00 0.9000E+01
#aMCatNLO 1  0  0  1  2 0.72741819E+01 0.00000000E+00  9  5  0 0.00000000E+00 0.00000000E+00 0.00000000E+00 0.00000000E+00 0.00000000E+00
  <rwgt>
   <wgt id='1001'> 0.15479E+04 </wgt>
   <wgt id='1002'> 0.17011E+04 </wgt>
   <wgt id='1003'> 0.13368E+04 </wgt>
   <wgt id='1004'> 0.19482E+04 </wgt>
   <wgt id='1005'> 0.21510E+04 </wgt>
   <wgt id='1006'> 0.16692E+04 </wgt>
   <wgt id='1007'> 0.11338E+04 </wgt>
   <wgt id='1008'> 0.12404E+04 </wgt>
   <wgt id='1009'> 0.98677E+03 </wgt>
  </rwgt>
  </event>
  <event>
  4      0 -.15478455E+04 0.19119111E+02 0.75467711E-02 0.15797568E+00
       -2 -1    0    0    0  501 0.00000000E+00 0.00000000E+00 0.33899991E+01 0.34050688E+01 0.32000000E+00 0.0000E+00 0.9000E+01
        2 -1    0    0  501    0 0.00000000E+00 0.00000000E+00 -.10445005E+03 0.10445055E+03 0.32000000E+00 0.0000E+00 0.9000E+01
      -11  1    1    2    0    0 0.82404264E+01 0.14908036E+02 -.27492642E+02 0.32341916E+02 0.51099893E-03 0.0000E+00 0.9000E+01
       11  1    1    2    0    0 -.82404264E+01 -.14908036E+02 -.73567414E+02 0.75513698E+02 0.51099893E-03 0.0000E+00 0.9000E+01
#aMCatNLO 1  0  0  1  2 0.38072049E+00 0.00000000E+00  9  5  0 0.00000000E+00 0.00000000E+00 0.00000000E+00 0.00000000E+00 0.00000000E+00
  <rwgt>
   <wgt id='1001'> -.15479E+04 </wgt>
   <wgt id='1002'> -.12634E+04 </wgt>
   <wgt id='1003'> -.19315E+04 </wgt>
   <wgt id='1004'> -.25737E+04 </wgt>
   <wgt id='1005'> -.21414E+04 </wgt>
   <wgt id='1006'> -.31561E+04 </wgt>
   <wgt id='1007'> -.71329E+03 </wgt>
   <wgt id='1008'> -.55338E+03 </wgt>
   <wgt id='1009'> -.92926E+03 </wgt>
  </rwgt>
  </event>
  <event>
  5      0 0.15478455E+04 0.16267540E+02 0.75467711E-02 0.16046411E+00
        2 -1    0    0  501    0 0.00000000E+00 0.00000000E+00 0.32134237E+02 0.32135830E+02 0.32000000E+00 0.0000E+00 0.9000E+01
       -2 -1    0    0    0  501 0.00000000E+00 0.00000000E+00 -.68318107E+02 0.68318856E+02 0.32000000E+00 0.0000E+00 0.9000E+01
       23  2    1    2    0    0 0.00000000E+00 0.00000000E+00 -.36183870E+02 0.10045469E+03 0.93711641E+02 0.0000E+00 0.0000E+00
      -11  1    3    3    0    0 0.46495971E+00 -.12334234E+02 0.30361372E+02 0.32774418E+02 0.51099893E-03 0.0000E+00 0.9000E+01
       11  1    3    3    0    0 -.46495971E+00 0.12334234E+02 -.66545243E+02 0.67680269E+02 0.51099893E-03 0.0000E+00 0.9000E+01
#aMCatNLO 1  0  0  2  1 0.71121589E+01 0.00000000E+00  9  5  0 0.00000000E+00 0.00000000E+00 0.00000000E+00 0.00000000E+00 0.00000000E+00
  <rwgt>
   <wgt id='1001'> 0.15479E+04 </wgt>
   <wgt id='1002'> 0.14677E+04 </wgt>
   <wgt id='1003'> 0.16517E+04 </wgt>
   <wgt id='1004'> 0.17288E+04 </wgt>
   <wgt id='1005'> 0.16447E+04 </wgt>
   <wgt id='1006'> 0.18372E+04 </wgt>
   <wgt id='1007'> 0.13232E+04 </wgt>
   <wgt id='1008'> 0.12496E+04 </wgt>
   <wgt id='1009'> 0.14190E+04 </wgt>
  </rwgt>
  </event>
  <event>
  6      0 0.15478455E+04 0.30000000E+02 0.75467711E-02 0.13453452E+00
        2 -1    0    0  502    0 0.00000000E+00 0.00000000E+00 0.93199612E+03 0.93199618E+03 0.32000000E+00 0.0000E+00 0.9000E+01
       -2 -1    0    0    0  501 0.00000000E+00 0.00000000E+00 -.46243639E+01 0.46354225E+01 0.32000000E+00 0.0000E+00 0.9000E+01
       23  2    1    2    0    0 -.19458854E+02 -.20308639E+02 0.54191632E+03 0.55015062E+03 0.90561153E+02 0.0000E+00 0.0000E+00
      -11  1    3    3    0    0 -.29080104E+02 0.13380945E+01 0.51466358E+02 0.59128919E+02 0.51099893E-03 0.0000E+00 0.9000E+01
       11  1    3    3    0    0 0.96212504E+01 -.21646733E+02 0.49044996E+03 0.49102171E+03 0.51099893E-03 0.0000E+00 0.9000E+01
       21  1    1    2  502  501 0.19458854E+02 0.20308639E+02 0.38545544E+03 0.38648098E+03 0.75000000E+00 0.0000E+00 0.9000E+01
#aMCatNLO 2  0  0  1  2 0.28126283E+02 0.00000000E+00  9  5  0 0.00000000E+00 0.00000000E+00 0.00000000E+00 0.00000000E+00 0.00000000E+00
  <rwgt>
   <wgt id='1001'> 0.15479E+04 </wgt>
   <wgt id='1002'> 0.13825E+04 </wgt>
   <wgt id='1003'> 0.17596E+04 </wgt>
   <wgt id='1004'> 0.16492E+04 </wgt>
   <wgt id='1005'> 0.14730E+04 </wgt>
   <wgt id='1006'> 0.18748E+04 </wgt>
   <wgt id='1007'> 0.14212E+04 </wgt>
   <wgt id='1008'> 0.12693E+04 </wgt>
   <wgt id='1009'> 0.16155E+04 </wgt>
  </rwgt>
  </event>
  <event>
  5      0 0.15478455E+04 0.37491712E+02 0.75467711E-02 0.12992130E+00
       -1 -1    0    0    0  501 0.00000000E+00 0.00000000E+00 0.21066847E+01 0.21308496E+01 0.32000000E+00 0.0000E+00 0.9000E+01
        1 -1    0    0  501    0 0.00000000E+00 0.00000000E+00 -.96698601E+03 0.96698607E+03 0.32000000E+00 0.0000E+00 0.9000E+01
       23  2    1    2    0    0 0.00000000E+00 0.00000000E+00 -.96487933E+03 0.96911692E+03 0.90528878E+02 0.0000E+00 0.0000E+00
      -11  1    3    3    0    0 0.35259965E+02 0.12742188E+02 -.21093588E+03 0.21424186E+03 0.51099893E-03 0.0000E+00 0.9000E+01
       11  1    3    3    0    0 -.35259965E+02 -.12742188E+02 -.75394345E+03 0.75487505E+03 0.51099893E-03 0.0000E+00 0.9000E+01
#aMCatNLO 1  0  0  1  1 0.22154865E+02 0.00000000E+00  9  5  0 0.00000000E+00 0.00000000E+00 0.00000000E+00 0.00000000E+00 0.00000000E+00
  <rwgt>
   <wgt id='1001'> 0.15479E+04 </wgt>
   <wgt id='1002'> 0.16858E+04 </wgt>
   <wgt id='1003'> 0.13706E+04 </wgt>
   <wgt id='1004'> 0.16349E+04 </wgt>
   <wgt id='1005'> 0.17861E+04 </wgt>
   <wgt id='1006'> 0.14406E+04 </wgt>
   <wgt id='1007'> 0.14306E+04 </wgt>
   <wgt id='1008'> 0.15535E+04 </wgt>
   <wgt id='1009'> 0.12727E+04 </wgt>
  </rwgt>
  </event>
  <event>
  6      0 0.15478455E+04 0.36222184E+02 0.75467711E-02 0.12847824E+00
        2 -1    0    0  501    0 0.00000000E+00 0.00000000E+00 0.32176201E+03 0.32176217E+03 0.32000000E+00 0.0000E+00 0.9000E+01
       -2 -1    0    0    0  502 0.00000000E+00 0.00000000E+00 -.12725291E+02 0.12729314E+02 0.32000000E+00 0.0000E+00 0.9000E+01
       23  2    1    2    0    0 0.63139000E+01 -.29073288E+02 0.22163690E+03 0.24216374E+03 0.92925990E+02 0.0000E+00 0.0000E+00
      -11  1    3    3    0    0 -.48777140E+01 -.51371564E+02 0.62347613E+02 0.80932408E+02 0.51099893E-03 0.0000E+00 0.9000E+01
       11  1    3    3    0    0 0.11191614E+02 0.22298277E+02 0.15928929E+03 0.16123133E+03 0.51099893E-03 0.0000E+00 0.9000E+01
       21  1    1    2  501  502 -.63139000E+01 0.29073288E+02 0.87399816E+02 0.92327741E+02 0.75000000E+00 0.0000E+00 0.9000E+01
#aMCatNLO 2  0  0  2  2 0.29750990E+02 0.00000000E+00  9  5  0 0.00000000E+00 0.00000000E+00 0.00000000E+00 0.00000000E+00 0.00000000E+00
  <rwgt>
   <wgt id='1001'> 0.15479E+04 </wgt>
   <wgt id='1002'> 0.13895E+04 </wgt>
   <wgt id='1003'> 0.17482E+04 </wgt>
   <wgt id='1004'> 0.16647E+04 </wgt>
   <wgt id='1005'> 0.14943E+04 </wgt>
   <wgt id='1006'> 0.18801E+04 </wgt>
   <wgt id='1007'> 0.14097E+04 </wgt>
   <wgt id='1008'> 0.12654E+04 </wgt>
   <wgt id='1009'> 0.15921E+04 </wgt>
  </rwgt>
  </event>
  <event>
  5      0 0.15478455E+04 0.30000000E+02 0.75467711E-02 0.12356819E+00
       -3 -1    0    0    0  501 0.00000000E+00 0.00000000E+00 0.13178418E+02 0.13187900E+02 0.50000000E+00 0.0000E+00 0.9000E+01
        3 -1    0    0  501    0 0.00000000E+00 0.00000000E+00 -.15360148E+03 0.15360230E+03 0.50000000E+00 0.0000E+00 0.9000E+01
       23  2    1    2    0    0 0.00000000E+00 0.00000000E+00 -.14042307E+03 0.16679020E+03 0.90001849E+02 0.0000E+00 0.0000E+00
      -11  1    3    3    0    0 0.57381121E+01 0.26067934E+02 -.13735266E+03 0.13992218E+03 0.51099893E-03 0.0000E+00 0.9000E+01
       11  1    3    3    0    0 -.57381121E+01 -.26067934E+02 -.30704067E+01 0.26868020E+02 0.51099893E-03 0.0000E+00 0.9000E+01
#aMCatNLO 1  0  0  1  2 0.57249101E+02 0.00000000E+00  9  5  0 0.00000000E+00 0.00000000E+00 0.00000000E+00 0.00000000E+00 0.00000000E+00
  <rwgt>
   <wgt id='1001'> 0.15479E+04 </wgt>
   <wgt id='1002'> 0.15340E+04 </wgt>
   <wgt id='1003'> 0.15659E+04 </wgt>
   <wgt id='1004'> 0.11370E+04 </wgt>
   <wgt id='1005'> 0.11952E+04 </wgt>
   <wgt id='1006'> 0.10608E+04 </wgt>
   <wgt id='1007'> 0.18370E+04 </wgt>
   <wgt id='1008'> 0.17615E+04 </wgt>
   <wgt id='1009'> 0.19356E+04 </wgt>
  </rwgt>
  </event>
  <event>
  5      0 0.15478455E+04 0.30558376E+02 0.75467711E-02 0.13976594E+00
       -1 -1    0    0    0  501 0.00000000E+00 0.00000000E+00 0.74724866E+03 0.74724872E+03 0.32000000E+00 0.0000E+00 0.9000E+01
        1 -1    0    0  501    0 0.00000000E+00 0.00000000E+00 -.26840799E+01 0.27030881E+01 0.32000000E+00 0.0000E+00 0.9000E+01
       23  2    1    2    0    0 0.00000000E+00 0.00000000E+00 0.74456458E+03 0.74995181E+03 0.89729111E+02 0.0000E+00 0.0000E+00
      -11  1    3    3    0    0 0.10529362E+01 -.30540230E+02 0.64682729E+03 0.64754873E+03 0.51099893E-03 0.0000E+00 0.9000E+01
       11  1    3    3    0    0 -.10529362E+01 0.30540230E+02 0.97737290E+02 0.10240309E+03 0.51099893E-03 0.0000E+00 0.9000E+01
#aMCatNLO 1  0  0  2  2 0.39541596E+01 0.00000000E+00  9  5  0 0.00000000E+00 0.00000000E+00 0.00000000E+00 0.00000000E+00 0.00000000E+00
  <rwgt>
   <wgt id='1001'> 0.15479E+04 </wgt>
   <wgt id='1002'> 0.15242E+04 </wgt>
   <wgt id='1003'> 0.15778E+04 </wgt>
   <wgt id='1004'> 0.16497E+04 </wgt>
   <wgt id='1005'> 0.16266E+04 </wgt>
   <wgt id='1006'> 0.16792E+04 </wgt>
   <wgt id='1007'> 0.14089E+04 </wgt>
   <wgt id='1008'> 0.13864E+04 </wgt>
   <wgt id='1009'> 0.14377E+04 </wgt>
  </rwgt>
  </event>
  <event>
  6      0 0.15478455E+04 0.30000000E+02 0.75467711E-02 0.12957586E+00
       21 -1    0    0  501  502 0.00000000E+00 0.00000000E+00 0.17391709E+03 0.17391871E+03 0.75000000E+00 0.0000E+00 0.9000E+01
       -3 -1    0    0    0  501 0.00000000E+00 0.00000000E+00 -.25831738E+02 0.25836576E+02 0.50000000E+00 0.0000E+00 0.9000E+01
       23  2    1    2    0    0 -.21972846E+02 0.32275970E+02 0.97301929E+02 0.13569476E+03 0.86144410E+02 0.0000E+00 0.0000E+00
      -11  1    3    3    0    0 -.34223841E+02 0.35454865E+02 0.13709345E+02 0.51149436E+02 0.51099893E-03 0.0000E+00 0.9000E+01
       11  1    3    3    0    0 0.12250995E+02 -.31788946E+01 0.83592585E+02 0.84545328E+02 0.51099893E-03 0.0000E+00 0.9000E+01
       -3  1    1    2    0  502 0.21972846E+02 -.32275970E+02 0.50783428E+02 0.64060524E+02 0.50000000E+00 0.0000E+00 0.9000E+01
#aMCatNLO 2  0  0  1  2 0.39045412E+02 0.00000000E+00  9  5  0 0.00000000E+00 0.00000000E+00 0.00000000E+00 0.00000000E+00 0.00000000E+00
  <rwgt>
   <wgt id='1001'> 0.15478E+04 </wgt>
   <wgt id='1002'> 0.13882E+04 </wgt>
   <wgt id='1003'> 0.17503E+04 </wgt>
   <wgt id='1004'> 0.15998E+04 </wgt>
   <wgt id='1005'> 0.14349E+04 </wgt>
   <wgt id='1006'> 0.18091E+04 </wgt>
   <wgt id='1007'> 0.14662E+04 </wgt>
   <wgt id='1008'> 0.13150E+04 </wgt>
   <wgt id='1009'> 0.16579E+04 </wgt>
  </rwgt>
  </event>
  <event>
  5      0 0.15478455E+04 0.20421883E+02 0.75467711E-02 0.12840617E+00
        2 -1    0    0  501    0 0.00000000E+00 0.00000000E+00 0.95109471E+02 0.95110009E+02 0.32000000E+00 0.0000E+00 0.9000E+01
       -2 -1    0    0    0  501 0.00000000E+00 0.00000000E+00 -.19658664E+02 0.19661268E+02 0.32000000E+00 0.0000E+00 0.9000E+01
       23  2    1    2    0    0 0.00000000E+00 0.00000000E+00 0.75450807E+02 0.11477128E+03 0.86484808E+02 0.0000E+00 0.0000E+00
      -11  1    3    3    0    0 0.41933710E+02 -.10358343E+02 0.35014101E+02 0.55603225E+02 0.51099893E-03 0.0000E+00 0.9000E+01
       11  1    3    3    0    0 -.41933710E+02 0.10358343E+02 0.40436706E+02 0.59168053E+02 0.51099893E-03 0.0000E+00 0.9000E+01
#aMCatNLO 1  0  0  1  2 0.18352606E+02 0.00000000E+00  9  5  0 0.00000000E+00 0.00000000E+00 0.00000000E+00 0.00000000E+00 0.00000000E+00
  <rwgt>
   <wgt id='1001'> 0.15479E+04 </wgt>
   <wgt id='1002'> 0.15214E+04 </wgt>
   <wgt id='1003'> 0.15792E+04 </wgt>
   <wgt id='1004'> 0.19568E+04 </wgt>
   <wgt id='1005'> 0.19014E+04 </wgt>
   <wgt id='1006'> 0.20250E+04 </wgt>
   <wgt id='1007'> 0.12127E+04 </wgt>
   <wgt id='1008'> 0.12054E+04 </wgt>
   <wgt id='1009'> 0.12199E+04 </wgt>
  </rwgt>
  </event>
  <event>
  6      0 0.15478455E+04 0.30000000E+02 0.75467711E-02 0.13680131E+00
       21 -1    0    0  502  501 0.00000000E+00 0.00000000E+00 0.25689227E+01 0.26761659E+01 0.75000000E+00 0.0000E+00 0.9000E+01
        2 -1    0    0  501    0 0.00000000E+00 0.00000000E+00 -.13760710E+04 0.13760710E+04 0.32000000E+00 0.0000E+00 0.9000E+01
       23  2    1    2    0    0 -.24453450E+02 -.11262990E+02 -.99418863E+03 0.99847937E+03 0.88460203E+02 0.0000E+00 0.0000E+00
      -11  1    3    3    0    0 0.86373145E+01 -.10391628E+02 -.86537433E+03 0.86547982E+03 0.51099893E-03 0.0000E+00 0.9000E+01
       11  1    3    3    0    0 -.33090764E+02 -.87136187E+00 -.12881430E+03 0.13299955E+03 0.51099893E-03 0.0000E+00 0.9000E+01
        2  1    1    2  502    0 0.24453450E+02 0.11262990E+02 -.37931344E+03 0.38026782E+03 0.32000000E+00 0.0000E+00 0.9000E+01
#aMCatNLO 2  0  0  1  1 0.26922595E+02 0.00000000E+00  9  5  0 0.00000000E+00 0.00000000E+00 0.00000000E+00 0.00000000E+00 0.00000000E+00
  <rwgt>
   <wgt id='1001'> 0.15479E+04 </wgt>
   <wgt id='1002'> 0.13799E+04 </wgt>
   <wgt id='1003'> 0.17639E+04 </wgt>
   <wgt id='1004'> 0.16384E+04 </wgt>
   <wgt id='1005'> 0.14606E+04 </wgt>
   <wgt id='1006'> 0.18671E+04 </wgt>
   <wgt id='1007'> 0.14126E+04 </wgt>
   <wgt id='1008'> 0.12593E+04 </wgt>
   <wgt id='1009'> 0.16097E+04 </wgt>
  </rwgt>
  </event>
  <event>
  5      0 0.15478455E+04 0.34490089E+02 0.75467711E-02 0.11767020E+00
       -2 -1    0    0    0  501 0.00000000E+00 0.00000000E+00 0.10454059E+02 0.10458956E+02 0.32000000E+00 0.0000E+00 0.9000E+01
        2 -1    0    0  501    0 0.00000000E+00 0.00000000E+00 -.19523611E+03 0.19523637E+03 0.32000000E+00 0.0000E+00 0.9000E+01
       23  2    1    2    0    0 0.00000000E+00 0.00000000E+00 -.18478205E+03 0.20569532E+03 0.90366817E+02 0.0000E+00 0.0000E+00
      -11  1    3    3    0    0 -.27920151E+02 -.20249232E+02 -.15883087E+03 0.16253250E+03 0.51099893E-03 0.0000E+00 0.9000E+01
       11  1    3    3    0    0 0.27920151E+02 0.20249232E+02 -.25951173E+02 0.43162827E+02 0.51099893E-03 0.0000E+00 0.9000E+01
#aMCatNLO 1  0  0  1  2 0.86731083E+02 0.00000000E+00  9  5  0 0.00000000E+00 0.00000000E+00 0.00000000E+00 0.00000000E+00 0.00000000E+00
  <rwgt>
   <wgt id='1001'> 0.15479E+04 </wgt>
   <wgt id='1002'> 0.14980E+04 </wgt>
   <wgt id='1003'> 0.16121E+04 </wgt>
   <wgt id='1004'> 0.13144E+04 </wgt>
   <wgt id='1005'> 0.13036E+04 </wgt>
   <wgt id='1006'> 0.13284E+04 </wgt>
   <wgt id='1007'> 0.17284E+04 </wgt>
   <wgt id='1008'> 0.16434E+04 </wgt>
   <wgt id='1009'> 0.18380E+04 </wgt>
  </rwgt>
  </event>
  <event>
  5      0 0.15478455E+04 0.19750186E+02 0.75467711E-02 0.13617051E+00
       -2 -1    0    0    0  501 0.00000000E+00 0.00000000E+00 0.24202948E+02 0.24205063E+02 0.32000000E+00 0.0000E+00 0.9000E+01
        2 -1    0    0  501    0 0.00000000E+00 0.00000000E+00 -.82533536E+02 0.82534156E+02 0.32000000E+00 0.0000E+00 0.9000E+01
       23  2    1    2    0    0 0.00000000E+00 0.00000000E+00 -.58330588E+02 0.10673922E+03 0.89391294E+02 0.0000E+00 0.0000E+00
      -11  1    3    3    0    0 0.37575024E+02 -.36232578E+01 -.57740460E+02 0.68985296E+02 0.51099893E-03 0.0000E+00 0.9000E+01
       11  1    3    3    0    0 -.37575024E+02 0.36232578E+01 -.59012838E+00 0.37753923E+02 0.51099893E-03 0.0000E+00 0.9000E+01
#aMCatNLO 1  0  0  1  2 0.86731083E+02 0.00000000E+00  9  5  0 0.00000000E+00 0.00000000E+00 0.00000000E+00 0.00000000E+00 0.00000000E+00
  <rwgt>
   <wgt id='1001'> 0.15479E+04 </wgt>
   <wgt id='1002'> 0.13807E+04 </wgt>
   <wgt id='1003'> 0.17626E+04 </wgt>
   <wgt id='1004'> 0.17155E+04 </wgt>
   <wgt id='1005'> 0.15302E+04 </wgt>
   <wgt id='1006'> 0.19536E+04 </wgt>
   <wgt id='1007'> 0.13557E+04 </wgt>
   <wgt id='1008'> 0.12092E+04 </wgt>
   <wgt id='1009'> 0.15439E+04 </wgt>
  </rwgt>
  </event>
  <event>
  4      0 0.15478455E+04 0.19023843E+02 0.75467711E-02 0.16479638E+00
       -3 -1    0    0    0  501 0.00000000E+00 0.00000000E+00 0.45826340E+01 0.46098302E+01 0.50000000E+00 0.0000E+00 0.9000E+01
        3 -1    0    0  501    0 0.00000000E+00 0.00000000E+00 -.67772141E+02 0.67773985E+02 0.50000000E+00 0.0000E+00 0.9000E+01
      -11  1    1    2    0    0 0.69972040E+01 -.67041490E+01 -.13435093E+01 0.97832252E+01 0.51099893E-03 0.0000E+00 0.9000E+01
       11  1    1    2    0    0 -.69972040E+01 0.67041490E+01 -.61845998E+02 0.62600590E+02 0.51099893E-03 0.0000E+00 0.9000E+01
#aMCatNLO 1  0  0  2  1 0.82518748E+01 0.00000000E+00  9  5  0 0.00000000E+00 0.00000000E+00 0.00000000E+00 0.00000000E+00 0.00000000E+00
  <rwgt>
   <wgt id='1001'> 0.15478E+04 </wgt>
   <wgt id='1002'> 0.14510E+04 </wgt>
   <wgt id='1003'> 0.16752E+04 </wgt>
   <wgt id='1004'> 0.19742E+04 </wgt>
   <wgt id='1005'> 0.18596E+04 </wgt>
   <wgt id='1006'> 0.21244E+04 </wgt>
   <wgt id='1007'> 0.12037E+04 </wgt>
   <wgt id='1008'> 0.11141E+04 </wgt>
   <wgt id='1009'> 0.13230E+04 </wgt>
  </rwgt>
  </event>
  <event>
  5      0 0.15478455E+04 0.37427400E+02 0.75467711E-02 0.13465035E+00
        2 -1    0    0  501    0 0.00000000E+00 0.00000000E+00 0.78826503E+03 0.78826510E+03 0.32000000E+00 0.0000E+00 0.9000E+01
       -2 -1    0    0    0  501 0.00000000E+00 0.00000000E+00 -.26614708E+01 0.26806393E+01 0.32000000E+00 0.0000E+00 0.9000E+01
       23  2    1    2    0    0 0.00000000E+00 0.00000000E+00 0.78560356E+03 0.79094573E+03 0.91772557E+02 0.0000E+00 0.0000E+00
      -11  1    3    3    0    0 0.34831015E+02 -.20174093E+02 0.20292823E+03 0.20688175E+03 0.51099893E-03 0.0000E+00 0.9000E+01
       11  1    3    3    0    0 -.34831015E+02 0.20174093E+02 0.58267533E+03 0.58406398E+03 0.51099893E-03 0.0000E+00 0.9000E+01
#aMCatNLO 1  0  0  1  2 0.21164798E-01 0.00000000E+00  9  5  0 0.00000000E+00 0.00000000E+00 0.00000000E+00 0.00000000E+00 0.00000000E+00
  <rwgt>
   <wgt id='1001'> 0.15480E+04 </wgt>
   <wgt id='1002'> 0.14150E+04 </wgt>
   <wgt id='1003'> 0.17176E+04 </wgt>
   <wgt id='1004'> 0.18861E+04 </wgt>
   <wgt id='1005'> 0.17201E+04 </wgt>
   <wgt id='1006'> 0.20982E+04 </wgt>
   <wgt id='1007'> 0.12259E+04 </wgt>
   <wgt id='1008'> 0.11239E+04 </wgt>
   <wgt id='1009'> 0.13560E+04 </wgt>
  </rwgt>
  </event>
  <event>
  5      0 0.15478455E+04 0.30000000E+02 0.75467711E-02 0.13385943E+00
        2 -1    0    0  501    0 0.00000000E+00 0.00000000E+00 0.35074320E+03 0.35074335E+03 0.32000000E+00 0.0000E+00 0.9000E+01
       21 -1    0    0  502  501 0.00000000E+00 0.00000000E+00 -.50236868E+01 0.50793631E+01 0.75000000E+00 0.0000E+00 0.9000E+01
      -11  1    1    2    0    0 -.39038316E+02 -.10314235E+02 0.18748035E+03 0.19177919E+03 0.51099893E-03 0.0000E+00 0.9000E+01
       11  1    1    2    0    0 0.14581638E+02 0.11326521E+02 0.77859510E+02 0.80018857E+02 0.51099893E-03 0.0000E+00 0.9000E+01
        2  1    1    2  502    0 0.24456678E+02 -.10122867E+01 0.80379652E+02 0.84024667E+02 0.32000000E+00 0.0000E+00 0.9000E+01
#aMCatNLO 2  0  0  2  2 0.24477619E+02 0.00000000E+00  9  5  0 0.00000000E+00 0.00000000E+00 0.00000000E+00 0.00000000E+00 0.00000000E+00
  <rwgt>
   <wgt id='1001'> 0.15478E+04 </wgt>
   <wgt id='1002'> 0.13833E+04 </wgt>
   <wgt id='1003'> 0.17583E+04 </wgt>
   <wgt id='1004'> 0.17165E+04 </wgt>
   <wgt id='1005'> 0.15340E+04 </wgt>
   <wgt id='1006'> 0.19499E+04 </wgt>
   <wgt id='1007'> 0.13446E+04 </wgt>
   <wgt id='1008'> 0.12016E+04 </wgt>
   <wgt id='1009'> 0.15274E+04 </wgt>
  </rwgt>
  </event>
  <event>
  5      0 0.15478455E+04 0.30000000E+02 0.75467711E-02 0.13653694E+00
       -2 -1    0    0    0  501 0.00000000E+00 0.00000000E+00 0.13096484E+01 0.13481761E+01 0.32000000E+00 0.0000E+00 0.9000E+01
        2 -1    0    0  501    0 0.00000000E+00 0.00000000E+00 -.15058150E+04 0.15058150E+04 0.32000000E+00 0.0000E+00 0.9000E+01
       23  2    1    2    0    0 0.00000000E+00 0.00000000E+00 -.15045053E+04 0.15071632E+04 0.89468367E+02 0.0000E+00 0.0000E+00
      -11  1    3    3    0    0 -.76267427E+01 -.39691412E+01 -.14917848E+04 0.14918096E+04 0.51099893E-03 0.0000E+00 0.9000E+01
       11  1    3    3    0    0 0.76267427E+01 0.39691412E+01 -.12720483E+02 0.15353565E+02 0.51099893E-03 0.0000E+00 0.9000E+01
#aMCatNLO 1  0  0  1  1 0.35865839E+02 0.00000000E+00  9  5  0 0.00000000E+00 0.00000000E+00 0.00000000E+00 0.00000000E+00 0.00000000E+00
  <rwgt>
   <wgt id='1001'> 0.15479E+04 </wgt>
   <wgt id='1002'> 0.14891E+04 </wgt>
   <wgt id='1003'> 0.16318E+04 </wgt>
   <wgt id='1004'> 0.17278E+04 </wgt>
   <wgt id='1005'> 0.16640E+04 </wgt>
   <wgt id='1006'> 0.18192E+04 </wgt>
   <wgt id='1007'> 0.13179E+04 </wgt>
   <wgt id='1008'> 0.12667E+04 </wgt>
   <wgt id='1009'> 0.13912E+04 </wgt>
  </rwgt>
  </event>
  <event>
  5      0 0.15478455E+04 0.30000000E+02 0.75467711E-02 0.13489802E+00
        2 -1    0    0  501    0 0.00000000E+00 0.00000000E+00 0.12038831E+03 0.12038873E+03 0.32000000E+00 0.0000E+00 0.9000E+01
       -2 -1    0    0    0  501 0.00000000E+00 0.00000000E+00 -.17548599E+02 0.17551516E+02 0.32000000E+00 0.0000E+00 0.9000E+01
       23  2    1    2    0    0 0.00000000E+00 0.00000000E+00 0.10283971E+03 0.13794025E+03 0.91932076E+02 0.0000E+00 0.0000E+00
      -11  1    3    3    0    0 0.55329747E+01 -.91383721E+01 -.15661759E+02 0.18958227E+02 0.51099893E-03 0.0000E+00 0.9000E+01
       11  1    3    3    0    0 -.55329747E+01 0.91383721E+01 0.11850147E+03 0.11898202E+03 0.51099893E-03 0.0000E+00 0.9000E+01
#aMCatNLO 1  0  0  2  2 0.37470944E+02 0.00000000E+00  9  5  0 0.00000000E+00 0.00000000E+00 0.00000000E+00 0.00000000E+00 0.00000000E+00
  <rwgt>
   <wgt id='1001'> 0.15479E+04 </wgt>
   <wgt id='1002'> 0.15000E+04 </wgt>
   <wgt id='1003'> 0.16144E+04 </wgt>
   <wgt id='1004'> 0.18076E+04 </wgt>
   <wgt id='1005'> 0.17536E+04 </wgt>
   <wgt id='1006'> 0.18829E+04 </wgt>
   <wgt id='1007'> 0.12457E+04 </wgt>
   <wgt id='1008'> 0.12061E+04 </wgt>
   <wgt id='1009'> 0.13009E+04 </wgt>
  </rwgt>
  </event>
  <event>
  5      0 0.15478455E+04 0.30000000E+02 0.75467711E-02 0.11075831E+00
        3 -1    0    0  501    0 0.00000000E+00 0.00000000E+00 0.18517644E+01 0.19180801E+01 0.50000000E+00 0.0000E+00 0.9000E+01
       -3 -1    0    0    0  501 0.00000000E+00 0.00000000E+00 -.86957029E+03 0.86957044E+03 0.50000000E+00 0.0000E+00 0.9000E+01
       23  2    1    2    0    0 0.00000000E+00 0.00000000E+00 -.86771853E+03 0.87148852E+03 0.80974008E+02 0.0000E+00 0.0000E+00
      -11  1    3    3    0    0 -.25323148E+02 0.69033903E+01 -.76563267E+03 0.76608244E+03 0.51099893E-03 0.0000E+00 0.9000E+01
       11  1    3    3    0    0 0.25323148E+02 -.69033903E+01 -.10208586E+03 0.10540608E+03 0.51099893E-03 0.0000E+00 0.9000E+01
#aMCatNLO 1  0  0  1  1 0.14047217E+03 0.00000000E+00  9  5  0 0.00000000E+00 0.00000000E+00 0.00000000E+00 0.00000000E+00 0.00000000E+00
  <rwgt>
   <wgt id='1001'> 0.15478E+04 </wgt>
   <wgt id='1002'> 0.14592E+04 </wgt>
   <wgt id='1003'> 0.16638E+04 </wgt>
   <wgt id='1004'> 0.13002E+04 </wgt>
   <wgt id='1005'> 0.12496E+04 </wgt>
   <wgt id='1006'> 0.13665E+04 </wgt>
   <wgt id='1007'> 0.17819E+04 </wgt>
   <wgt id='1008'> 0.16548E+04 </wgt>
   <wgt id='1009'> 0.19482E+04 </wgt>
  </rwgt>
  </event>
  <event>
  5      0 0.15478455E+04 0.49294700E+02 0.75467711E-02 0.11739671E+00
       -2 -1    0    0    0  501 0.00000000E+00 0.00000000E+00 0.81630057E+01 0.81692755E+01 0.32000000E+00 0.0000E+00 0.9000E+01
        2 -1    0    0  501    0 0.00000000E+00 0.00000000E+00 -.33846334E+03 0.33846349E+03 0.32000000E+00 0.0000E+00 0.9000E+01
       23  2    1    2    0    0 0.00000000E+00 0.00000000E+00 -.33030033E+03 0.34663276E+03 0.10514734E+03 0.0000E+00 0.0000E+00
      -11  1    3    3    0    0 0.18934173E+02 0.45513345E+02 -.10489978E+03 0.11590483E+03 0.51099893E-03 0.0000E+00 0.9000E+01
       11  1    3    3    0    0 -.18934173E+02 -.45513345E+02 -.22540055E+03 0.23072793E+03 0.51099893E-03 0.0000E+00 0.9000E+01
#aMCatNLO 1  0  0  2  2 0.68873473E+02 0.00000000E+00  9  5  0 0.00000000E+00 0.00000000E+00 0.00000000E+00 0.00000000E+00 0.00000000E+00
  <rwgt>
   <wgt id='1001'> 0.15479E+04 </wgt>
   <wgt id='1002'> 0.15399E+04 </wgt>
   <wgt id='1003'> 0.15580E+04 </wgt>
   <wgt id='1004'> 0.13198E+04 </wgt>
   <wgt id='1005'> 0.13491E+04 </wgt>
   <wgt id='1006'> 0.12827E+04 </wgt>
   <wgt id='1007'> 0.17214E+04 </wgt>
   <wgt id='1008'> 0.16797E+04 </wgt>
   <wgt id='1009'> 0.17742E+04 </wgt>
  </rwgt>
  </event>
  <event>
  4      0 0.15478455E+04 0.30000000E+02 0.75467711E-02 0.15744475E+00
        2 -1    0    0  501    0 0.00000000E+00 0.00000000E+00 0.17216563E+04 0.17216564E+04 0.32000000E+00 0.0000E+00 0.9000E+01
       -2 -1    0    0    0  501 0.00000000E+00 0.00000000E+00 -.60000504E-02 0.29703277E+00 0.29697217E+00 0.0000E+00 0.9000E+01
      -11  1    1    2    0    0 0.12792836E+02 0.95925864E+01 0.98275292E+03 0.98288299E+03 0.51099893E-03 0.0000E+00 0.9000E+01
       11  1    1    2    0    0 -.12792836E+02 -.95925864E+01 0.73889741E+03 0.73907040E+03 0.51099893E-03 0.0000E+00 0.9000E+01
#aMCatNLO 1  0  0  2  2 0.29104820E+01 0.00000000E+00  9  5  0 0.00000000E+00 0.00000000E+00 0.00000000E+00 0.00000000E+00 0.00000000E+00
  <rwgt>
   <wgt id='1001'> 0.15478E+04 </wgt>
   <wgt id='1002'> 0.15478E+04 </wgt>
   <wgt id='1003'> 0.15479E+04 </wgt>
   <wgt id='1004'> 0.17533E+04 </wgt>
   <wgt id='1005'> 0.17557E+04 </wgt>
   <wgt id='1006'> 0.17500E+04 </wgt>
   <wgt id='1007'> 0.13069E+04 </wgt>
   <wgt id='1008'> 0.13050E+04 </wgt>
   <wgt id='1009'> 0.13094E+04 </wgt>
  </rwgt>
  </event>
  <event>
  5      0 0.15478455E+04 0.30000000E+02 0.75467711E-02 0.12503172E+00
       -2 -1    0    0    0  501 0.00000000E+00 0.00000000E+00 0.25441159E+01 0.25641618E+01 0.32000000E+00 0.0000E+00 0.9000E+01
        2 -1    0    0  501    0 0.00000000E+00 0.00000000E+00 -.84783743E+03 0.84783749E+03 0.32000000E+00 0.0000E+00 0.9000E+01
       23  2    1    2    0    0 0.00000000E+00 0.00000000E+00 -.84529332E+03 0.85040165E+03 0.93070850E+02 0.0000E+00 0.0000E+00
      -11  1    3    3    0    0 -.26153403E+02 -.35831164E+01 -.77281585E+03 0.77326656E+03 0.51099893E-03 0.0000E+00 0.9000E+01
       11  1    3    3    0    0 0.26153403E+02 0.35831164E+01 -.72477465E+02 0.77135090E+02 0.51099893E-03 0.0000E+00 0.9000E+01
#aMCatNLO 1  0  0  2  2 0.52842599E+02 0.00000000E+00  9  5  0 0.00000000E+00 0.00000000E+00 0.00000000E+00 0.00000000E+00 0.00000000E+00
  <rwgt>
   <wgt id='1001'> 0.15479E+04 </wgt>
   <wgt id='1002'> 0.15461E+04 </wgt>
   <wgt id='1003'> 0.15502E+04 </wgt>
   <wgt id='1004'> 0.15707E+04 </wgt>
   <wgt id='1005'> 0.15848E+04 </wgt>
   <wgt id='1006'> 0.15522E+04 </wgt>
   <wgt id='1007'> 0.14900E+04 </wgt>
   <wgt id='1008'> 0.14731E+04 </wgt>
   <wgt id='1009'> 0.15122E+04 </wgt>
  </rwgt>
  </event>
  <event>
  4      0 0.15478455E+04 0.18148915E+02 0.75467711E-02 0.14847703E+00
        1 -1    0    0  501    0 0.00000000E+00 0.00000000E+00 0.35824948E+01 0.35967581E+01 0.32000000E+00 0.0000E+00 0.9000E+01
       -1 -1    0    0    0  501 0.00000000E+00 0.00000000E+00 -.62834973E+02 0.62835788E+02 0.32000000E+00 0.0000E+00 0.9000E+01
      -11  1    1    2    0    0 -.44426739E+01 -.14348123E+02 -.29687155E+02 0.33270605E+02 0.51099893E-03 0.0000E+00 0.9000E+01
       11  1    1    2    0    0 0.44426739E+01 0.14348123E+02 -.29565324E+02 0.33161941E+02 0.51099893E-03 0.0000E+00 0.9000E+01
#aMCatNLO 1  0  0  1  2 0.13967450E+02 0.00000000E+00  9  5  0 0.00000000E+00 0.00000000E+00 0.00000000E+00 0.00000000E+00 0.00000000E+00
  <rwgt>
   <wgt id='1001'> 0.15478E+04 </wgt>
   <wgt id='1002'> 0.14631E+04 </wgt>
   <wgt id='1003'> 0.16585E+04 </wgt>
   <wgt id='1004'> 0.10038E+04 </wgt>
   <wgt id='1005'> 0.10176E+04 </wgt>
   <wgt id='1006'> 0.97994E+03 </wgt>
   <wgt id='1007'> 0.17269E+04 </wgt>
   <wgt id='1008'> 0.15900E+04 </wgt>
   <wgt id='1009'> 0.19093E+04 </wgt>
  </rwgt>
  </event>
  <event>
  5      0 0.15478455E+04 0.15950679E+02 0.75467711E-02 0.13454132E+00
        2 -1    0    0  501    0 0.00000000E+00 0.00000000E+00 0.44793336E+03 0.44793348E+03 0.32000000E+00 0.0000E+00 0.9000E+01
       -2 -1    0    0    0  501 0.00000000E+00 0.00000000E+00 -.38587170E+01 0.38719629E+01 0.32000000E+00 0.0000E+00 0.9000E+01
       23  2    1    2    0    0 0.00000000E+00 0.00000000E+00 0.44407465E+03 0.45180544E+03 0.83221779E+02 0.0000E+00 0.0000E+00
      -11  1    3    3    0    0 -.31136399E+02 0.17821076E+02 0.10759109E+03 0.11341476E+03 0.51099893E-03 0.0000E+00 0.9000E+01
       11  1    3    3    0    0 0.31136399E+02 -.17821076E+02 0.33648356E+03 0.33839068E+03 0.51099893E-03 0.0000E+00 0.9000E+01
#aMCatNLO 1  0  0  1  2 0.87280803E+01 0.00000000E+00  9  5  0 0.00000000E+00 0.00000000E+00 0.00000000E+00 0.00000000E+00 0.00000000E+00
  <rwgt>
   <wgt id='1001'> 0.15479E+04 </wgt>
   <wgt id='1002'> 0.15100E+04 </wgt>
   <wgt id='1003'> 0.15932E+04 </wgt>
   <wgt id='1004'> 0.21405E+04 </wgt>
   <wgt id='1005'> 0.20527E+04 </wgt>
   <wgt id='1006'> 0.22498E+04 </wgt>
   <wgt id='1007'> 0.10581E+04 </wgt>
   <wgt id='1008'> 0.10570E+04 </wgt>
   <wgt id='1009'> 0.10564E+04 </wgt>
  </rwgt>
  </event>
  <event>
  6      0 0.15478455E+04 0.44429993E+02 0.75467711E-02 0.12336903E+00
        2 -1    0    0  501    0 0.00000000E+00 0.00000000E+00 0.20731899E+02 0.20734369E+02 0.32000000E+00 0.0000E+00 0.9000E+01
       -2 -1    0    0    0  502 0.00000000E+00 0.00000000E+00 -.23129833E+03 0.23129855E+03 0.32000000E+00 0.0000E+00 0.9000E+01
       23  2    1    2    0    0 0.31025909E+02 0.24405435E+02 -.13331341E+03 0.16527565E+03 0.89360744E+02 0.0000E+00 0.0000E+00
      -11  1    3    3    0    0 -.23120398E+02 0.35101979E+02 -.65711109E+02 0.78004177E+02 0.51099893E-03 0.0000E+00 0.9000E+01
       11  1    3    3    0    0 0.54146308E+02 -.10696545E+02 -.67602298E+02 0.87271470E+02 0.51099893E-03 0.0000E+00 0.9000E+01
       21  1    1    2  501  502 -.31025909E+02 -.24405435E+02 -.77253022E+02 0.86757272E+02 0.75000000E+00 0.0000E+00 0.9000E+01
#aMCatNLO 2  0  0  2  1 0.39474451E+02 0.00000000E+00  9  5  0 0.00000000E+00 0.00000000E+00 0.00000000E+00 0.00000000E+00 0.00000000E+00
  <rwgt>
   <wgt id='1001'> 0.15479E+04 </wgt>
   <wgt id='1002'> 0.13954E+04 </wgt>
   <wgt id='1003'> 0.17388E+04 </wgt>
   <wgt id='1004'> 0.16218E+04 </wgt>
   <wgt id='1005'> 0.14620E+04 </wgt>
   <wgt id='1006'> 0.18218E+04 </wgt>
   <wgt id='1007'> 0.14536E+04 </wgt>
   <wgt id='1008'> 0.13104E+04 </wgt>
   <wgt id='1009'> 0.16329E+04 </wgt>
  </rwgt>
  </event>
  <event>
  5      0 0.15478455E+04 0.30000000E+02 0.75467711E-02 0.12457857E+00
       -2 -1    0    0    0  501 0.00000000E+00 0.00000000E+00 0.20576002E+01 0.20823349E+01 0.32000000E+00 0.0000E+00 0.9000E+01
        2 -1    0    0  501    0 0.00000000E+00 0.00000000E+00 -.10118359E+04 0.10118360E+04 0.32000000E+00 0.0000E+00 0.9000E+01
       23  2    1    2    0    0 0.00000000E+00 0.00000000E+00 -.10097783E+04 0.10139183E+04 0.91531824E+02 0.0000E+00 0.0000E+00
      -11  1    3    3    0    0 0.81188292E+01 -.39559971E+01 -.78990943E+01 0.11998375E+02 0.51099893E-03 0.0000E+00 0.9000E+01
       11  1    3    3    0    0 -.81188292E+01 0.39559971E+01 -.10018792E+04 0.10019199E+04 0.51099893E-03 0.0000E+00 0.9000E+01
#aMCatNLO 1  0  0  1  2 0.63121019E+02 0.00000000E+00  9  5  0 0.00000000E+00 0.00000000E+00 0.00000000E+00 0.00000000E+00 0.00000000E+00
  <rwgt>
   <wgt id='1001'> 0.15479E+04 </wgt>
   <wgt id='1002'> 0.13927E+04 </wgt>
   <wgt id='1003'> 0.17669E+04 </wgt>
   <wgt id='1004'> 0.14130E+04 </wgt>
   <wgt id='1005'> 0.12870E+04 </wgt>
   <wgt id='1006'> 0.15910E+04 </wgt>
   <wgt id='1007'> 0.15271E+04 </wgt>
   <wgt id='1008'> 0.13632E+04 </wgt>
   <wgt id='1009'> 0.17586E+04 </wgt>
  </rwgt>
  </event>
  <event>
  5      0 0.15478455E+04 0.44974745E+02 0.75467711E-02 0.12606455E+00
        2 -1    0    0  501    0 0.00000000E+00 0.00000000E+00 0.20792558E+03 0.20792582E+03 0.32000000E+00 0.0000E+00 0.9000E+01
       -2 -1    0    0    0  501 0.00000000E+00 0.00000000E+00 -.10035070E+02 0.10040171E+02 0.32000000E+00 0.0000E+00 0.9000E+01
       23  2    1    2    0    0 0.00000000E+00 0.00000000E+00 0.19789051E+03 0.21796599E+03 0.91370245E+02 0.0000E+00 0.0000E+00
      -11  1    3    3    0    0 0.36409554E+02 0.26402122E+02 0.11808941E+03 0.12636390E+03 0.51099893E-03 0.0000E+00 0.9000E+01
       11  1    3    3    0    0 -.36409554E+02 -.26402122E+02 0.79801100E+02 0.91602092E+02 0.51099893E-03 0.0000E+00 0.9000E+01
#aMCatNLO 1  0  0  1  2 0.25851019E+02 0.00000000E+00  9  5  0 0.00000000E+00 0.00000000E+00 0.00000000E+00 0.00000000E+00 0.00000000E+00
  <rwgt>
   <wgt id='1001'> 0.15479E+04 </wgt>
   <wgt id='1002'> 0.15478E+04 </wgt>
   <wgt id='1003'> 0.15480E+04 </wgt>
   <wgt id='1004'> 0.21629E+04 </wgt>
   <wgt id='1005'> 0.21147E+04 </wgt>
   <wgt id='1006'> 0.22243E+04 </wgt>
   <wgt id='1007'> 0.10386E+04 </wgt>
   <wgt id='1008'> 0.10732E+04 </wgt>
   <wgt id='1009'> 0.99445E+03 </wgt>
  </rwgt>
  </event>
  <event>
  6      0 0.15478455E+04 0.30000000E+02 0.75467711E-02 0.14912297E+00
       -1 -1    0    0    0  502 0.00000000E+00 0.00000000E+00 0.10684444E+04 0.10684444E+04 0.32000000E+00 0.0000E+00 0.9000E+01
        1 -1    0    0  501    0 0.00000000E+00 0.00000000E+00 -.31708724E+01 0.31869785E+01 0.32000000E+00 0.0000E+00 0.9000E+01
       23  2    1    2    0    0 -.20460254E+02 -.70776624E+01 0.83810008E+03 0.84342745E+03 0.92137997E+02 0.0000E+00 0.0000E+00
      -11  1    3    3    0    0 -.15750946E+01 -.51813814E+01 0.31208070E+00 0.54244844E+01 0.51099893E-03 0.0000E+00 0.9000E+01
       11  1    3    3    0    0 -.18885160E+02 -.18962810E+01 0.83778800E+03 0.83800297E+03 0.51099893E-03 0.0000E+00 0.9000E+01
       21  1    1    2  501  502 0.20460254E+02 0.70776624E+01 0.22717344E+03 0.22820397E+03 0.75000000E+00 0.0000E+00 0.9000E+01
#aMCatNLO 2  0  0  1  2 0.21649834E+02 0.00000000E+00  9  5  0 0.00000000E+00 0.00000000E+00 0.00000000E+00 0.00000000E+00 0.00000000E+00
  <rwgt>
   <wgt id='1001'> 0.15479E+04 </wgt>
   <wgt id='1002'> 0.13659E+04 </wgt>
   <wgt id='1003'> 0.17878E+04 </wgt>
   <wgt id='1004'> 0.16322E+04 </wgt>
   <wgt id='1005'> 0.14404E+04 </wgt>
   <wgt id='1006'> 0.18853E+04 </wgt>
   <wgt id='1007'> 0.14323E+04 </wgt>
   <wgt id='1008'> 0.12639E+04 </wgt>
   <wgt id='1009'> 0.16544E+04 </wgt>
  </rwgt>
  </event>
  <event>
  6      0 0.15478455E+04 0.42970709E+02 0.75467711E-02 0.11064912E+00
       21 -1    0    0  502  501 0.00000000E+00 0.00000000E+00 0.59523217E+02 0.59527942E+02 0.75000000E+00 0.0000E+00 0.9000E+01
        1 -1    0    0  501    0 0.00000000E+00 0.00000000E+00 -.48171883E+03 0.48171893E+03 0.32000000E+00 0.0000E+00 0.9000E+01
       23  2    1    2    0    0 0.20302637E+02 -.13062337E+03 -.92678949E+02 0.18620322E+03 0.92777100E+02 0.0000E+00 0.0000E+00
      -11  1    3    3    0    0 0.11015917E+02 -.13862309E+03 -.60279908E+02 0.15156312E+03 0.51099893E-03 0.0000E+00 0.9000E+01
       11  1    3    3    0    0 0.92867200E+01 0.79997221E+01 -.32399041E+02 0.34640101E+02 0.51099893E-03 0.0000E+00 0.9000E+01
        1  1    1    2  502    0 -.20302637E+02 0.13062337E+03 -.32951666E+03 0.35504365E+03 0.32000000E+00 0.0000E+00 0.9000E+01
#aMCatNLO 2  0  0  1  2 0.13219176E+03 0.00000000E+00  9  5  0 0.00000000E+00 0.00000000E+00 0.00000000E+00 0.00000000E+00 0.00000000E+00
  <rwgt>
   <wgt id='1001'> 0.15479E+04 </wgt>
   <wgt id='1002'> 0.14189E+04 </wgt>
   <wgt id='1003'> 0.17160E+04 </wgt>
   <wgt id='1004'> 0.14991E+04 </wgt>
   <wgt id='1005'> 0.13743E+04 </wgt>
   <wgt id='1006'> 0.16619E+04 </wgt>
   <wgt id='1007'> 0.15912E+04 </wgt>
   <wgt id='1008'> 0.14587E+04 </wgt>
   <wgt id='1009'> 0.17640E+04 </wgt>
  </rwgt>
  </event>
  <event>
  5      0 0.15478455E+04 0.38264197E+02 0.75467711E-02 0.13017767E+00
       -3 -1    0    0    0  501 0.00000000E+00 0.00000000E+00 0.22813998E+03 0.22814053E+03 0.50000000E+00 0.0000E+00 0.9000E+01
        3 -1    0    0  501    0 0.00000000E+00 0.00000000E+00 -.98670042E+01 0.98796646E+01 0.50000000E+00 0.0000E+00 0.9000E+01
       23  2    1    2    0    0 0.00000000E+00 0.00000000E+00 0.21827298E+03 0.23802019E+03 0.94923759E+02 0.0000E+00 0.0000E+00
      -11  1    3    3    0    0 0.25986327E+02 0.39694884E+02 0.10590876E+03 0.11605016E+03 0.51099893E-03 0.0000E+00 0.9000E+01
       11  1    3    3    0    0 -.25986327E+02 -.39694884E+02 0.11236421E+03 0.12197003E+03 0.51099893E-03 0.0000E+00 0.9000E+01
#aMCatNLO 1  0  0  1  2 0.32668532E+01 0.00000000E+00  9  5  0 0.00000000E+00 0.00000000E+00 0.00000000E+00 0.00000000E+00 0.00000000E+00
  <rwgt>
   <wgt id='1001'> 0.15479E+04 </wgt>
   <wgt id='1002'> 0.15189E+04 </wgt>
   <wgt id='1003'> 0.15791E+04 </wgt>
   <wgt id='1004'> 0.19139E+04 </wgt>
   <wgt id='1005'> 0.18608E+04 </wgt>
   <wgt id='1006'> 0.19754E+04 </wgt>
   <wgt id='1007'> 0.12672E+04 </wgt>
   <wgt id='1008'> 0.12511E+04 </wgt>
   <wgt id='1009'> 0.12827E+04 </wgt>
  </rwgt>
  </event>
  <event>
  5      0 0.15478455E+04 0.42055703E+02 0.75467711E-02 0.12646106E+00
       -3 -1    0    0    0  501 0.00000000E+00 0.00000000E+00 0.55822910E+01 0.56046385E+01 0.50000000E+00 0.0000E+00 0.9000E+01
        3 -1    0    0  501    0 0.00000000E+00 0.00000000E+00 -.39131703E+03 0.39131735E+03 0.50000000E+00 0.0000E+00 0.9000E+01
       23  2    1    2    0    0 0.00000000E+00 0.00000000E+00 -.38573474E+03 0.39692199E+03 0.93572302E+02 0.0000E+00 0.0000E+00
      -11  1    3    3    0    0 -.42023263E+02 0.16515211E+01 -.10590772E+03 0.11395230E+03 0.51099893E-03 0.0000E+00 0.9000E+01
       11  1    3    3    0    0 0.42023263E+02 -.16515211E+01 -.27982702E+03 0.28296969E+03 0.51099893E-03 0.0000E+00 0.9000E+01
#aMCatNLO 1  0  0  1  2 0.28438344E+02 0.00000000E+00  9  5  0 0.00000000E+00 0.00000000E+00 0.00000000E+00 0.00000000E+00 0.00000000E+00
  <rwgt>
   <wgt id='1001'> 0.15479E+04 </wgt>
   <wgt id='1002'> 0.15485E+04 </wgt>
   <wgt id='1003'> 0.15470E+04 </wgt>
   <wgt id='1004'> 0.16958E+04 </wgt>
   <wgt id='1005'> 0.16982E+04 </wgt>
   <wgt id='1006'> 0.16928E+04 </wgt>
   <wgt id='1007'> 0.13668E+04 </wgt>
   <wgt id='1008'> 0.13661E+04 </wgt>
   <wgt id='1009'> 0.13677E+04 </wgt>
  </rwgt>
  </event>
  <event>
  5      0 0.15478455E+04 0.23001190E+02 0.75467711E-02 0.13259203E+00
       -1 -1    0    0    0  501 0.00000000E+00 0.00000000E+00 0.78430691E+01 0.78495944E+01 0.32000000E+00 0.0000E+00 0.9000E+01
        1 -1    0    0  501    0 0.00000000E+00 0.00000000E+00 -.26363595E+03 0.26363614E+03 0.32000000E+00 0.0000E+00 0.9000E+01
       23  2    1    2    0    0 0.00000000E+00 0.00000000E+00 -.25579288E+03 0.27148574E+03 0.90964324E+02 0.0000E+00 0.0000E+00
      -11  1    3    3    0    0 -.55189090E+01 0.31315073E+02 -.30840240E+02 0.44296868E+02 0.51099893E-03 0.0000E+00 0.9000E+01
       11  1    3    3    0    0 0.55189090E+01 -.31315073E+02 -.22495264E+03 0.22718887E+03 0.51099893E-03 0.0000E+00 0.9000E+01
#aMCatNLO 1  0  0  1  2 0.22032238E+02 0.00000000E+00  9  5  0 0.00000000E+00 0.00000000E+00 0.00000000E+00 0.00000000E+00 0.00000000E+00
  <rwgt>
   <wgt id='1001'> 0.15479E+04 </wgt>
   <wgt id='1002'> 0.16490E+04 </wgt>
   <wgt id='1003'> 0.14137E+04 </wgt>
   <wgt id='1004'> 0.15492E+04 </wgt>
   <wgt id='1005'> 0.16799E+04 </wgt>
   <wgt id='1006'> 0.13767E+04 </wgt>
   <wgt id='1007'> 0.15585E+04 </wgt>
   <wgt id='1008'> 0.16242E+04 </wgt>
   <wgt id='1009'> 0.14706E+04 </wgt>
  </rwgt>
  </event>
  <event>
  6      0 0.15478455E+04 0.45464349E+02 0.75467711E-02 0.12333231E+00
       21 -1    0    0  502  501 0.00000000E+00 0.00000000E+00 0.21332466E+02 0.21345646E+02 0.75000000E+00 0.0000E+00 0.9000E+01
        1 -1    0    0  501    0 0.00000000E+00 0.00000000E+00 -.22918692E+03 0.22918714E+03 0.32000000E+00 0.0000E+00 0.9000E+01
       23  2    1    2    0    0 0.35943938E+02 0.13865838E+02 -.15718235E+03 0.18687753E+03 0.93448861E+02 0.0000E+00 0.0000E+00
      -11  1    3    3    0    0 0.52977548E+02 0.40590573E+02 -.12505510E+03 0.14174975E+03 0.51099893E-03 0.0000E+00 0.9000E+01
       11  1    3    3    0    0 -.17033611E+02 -.26724735E+02 -.32127259E+02 0.45127776E+02 0.51099893E-03 0.0000E+00 0.9000E+01
        1  1    1    2  502    0 -.35943938E+02 -.13865838E+02 -.50672096E+02 0.63655257E+02 0.32000000E+00 0.0000E+00 0.9000E+01
#aMCatNLO 2  0  0  1  2 0.38525681E+02 0.00000000E+00  9  5  0 0.00000000E+00 0.00000000E+00 0.00000000E+00 0.00000000E+00 0.00000000E+00
  <rwgt>
   <wgt id='1001'> 0.15479E+04 </wgt>
   <wgt id='1002'> 0.13954E+04 </wgt>
   <wgt id='1003'> 0.17387E+04 </wgt>
   <wgt id='1004'> 0.16145E+04 </wgt>
   <wgt id='1005'> 0.14555E+04 </wgt>
   <wgt id='1006'> 0.18135E+04 </wgt>
   <wgt id='1007'> 0.14542E+04 </wgt>
   <wgt id='1008'> 0.13110E+04 </wgt>
   <wgt id='1009'> 0.16335E+04 </wgt>
  </rwgt>
  </event>
  <event>
  6      0 0.15478455E+04 0.30000000E+02 0.75467711E-02 0.14290737E+00
       21 -1    0    0  502  501 0.00000000E+00 0.00000000E+00 0.52434496E+02 0.52439860E+02 0.75000000E+00 0.0000E+00 0.9000E+01
        1 -1    0    0  501    0 0.00000000E+00 0.00000000E+00 -.71942565E+02 0.71943276E+02 0.32000000E+00 0.0000E+00 0.9000E+01
       23  2    1    2    0    0 -.43440631E+01 0.17169249E+02 -.37665634E+02 0.99016749E+02 0.89844102E+02 0.0000E+00 0.0000E+00
      -11  1    3    3    0    0 0.27805455E+01 -.10792301E+02 0.26452847E+02 0.28704674E+02 0.51099893E-03 0.0000E+00 0.9000E+01
       11  1    3    3    0    0 -.71246085E+01 0.27961549E+02 -.64118481E+02 0.70312075E+02 0.51099893E-03 0.0000E+00 0.9000E+01
        1  1    1    2  502    0 0.43440631E+01 -.17169249E+02 0.18157566E+02 0.25366387E+02 0.32000000E+00 0.0000E+00 0.9000E+01
#aMCatNLO 2  0  0  1  2 0.17710279E+02 0.00000000E+00  9  5  0 0.00000000E+00 0.00000000E+00 0.00000000E+00 0.00000000E+00 0.00000000E+00
  <rwgt>
   <wgt id='1001'> 0.15479E+04 </wgt>
   <wgt id='1002'> 0.13730E+04 </wgt>
   <wgt id='1003'> 0.17757E+04 </wgt>
   <wgt id='1004'> 0.16481E+04 </wgt>
   <wgt id='1005'> 0.14619E+04 </wgt>
   <wgt id='1006'> 0.18908E+04 </wgt>
   <wgt id='1007'> 0.14065E+04 </wgt>
   <wgt id='1008'> 0.12476E+04 </wgt>
   <wgt id='1009'> 0.16135E+04 </wgt>
  </rwgt>
  </event>
  <event>
  5      0 0.15478455E+04 0.32576754E+02 0.75467711E-02 0.13104386E+00
       -2 -1    0    0    0  501 0.00000000E+00 0.00000000E+00 0.32791445E+01 0.32947213E+01 0.32000000E+00 0.0000E+00 0.9000E+01
        2 -1    0    0  501    0 0.00000000E+00 0.00000000E+00 -.61813437E+03 0.61813445E+03 0.32000000E+00 0.0000E+00 0.9000E+01
       23  2    1    2    0    0 0.00000000E+00 0.00000000E+00 -.61485522E+03 0.62142917E+03 0.90151373E+02 0.0000E+00 0.0000E+00
      -11  1    3    3    0    0 0.26132329E+02 -.19451125E+02 -.92677544E+02 0.98236308E+02 0.51099893E-03 0.0000E+00 0.9000E+01
       11  1    3    3    0    0 -.26132329E+02 0.19451125E+02 -.52217768E+03 0.52319286E+03 0.51099893E-03 0.0000E+00 0.9000E+01
#aMCatNLO 1  0  0  2  2 0.25907189E+02 0.00000000E+00  9  5  0 0.00000000E+00 0.00000000E+00 0.00000000E+00 0.00000000E+00 0.00000000E+00
  <rwgt>
   <wgt id='1001'> 0.15479E+04 </wgt>
   <wgt id='1002'> 0.16180E+04 </wgt>
   <wgt id='1003'> 0.14570E+04 </wgt>
   <wgt id='1004'> 0.16923E+04 </wgt>
   <wgt id='1005'> 0.17726E+04 </wgt>
   <wgt id='1006'> 0.15884E+04 </wgt>
   <wgt id='1007'> 0.13741E+04 </wgt>
   <wgt id='1008'> 0.14336E+04 </wgt>
   <wgt id='1009'> 0.12970E+04 </wgt>
  </rwgt>
  </event>
  <event>
  6      0 0.15478455E+04 0.30000000E+02 0.75467711E-02 0.14352276E+00
        1 -1    0    0  501    0 0.00000000E+00 0.00000000E+00 0.19260576E+03 0.19260602E+03 0.32000000E+00 0.0000E+00 0.9000E+01
       21 -1    0    0  502  501 0.00000000E+00 0.00000000E+00 -.40454206E+02 0.40461157E+02 0.75000000E+00 0.0000E+00 0.9000E+01
       23  2    1    2    0    0 0.14098097E+02 0.97565546E+01 0.13067412E+02 0.92929937E+02 0.90395073E+02 0.0000E+00 0.0000E+00
      -11  1    3    3    0    0 0.12853119E+02 0.22780051E+02 0.48530685E+02 0.55130398E+02 0.51099893E-03 0.0000E+00 0.9000E+01
       11  1    3    3    0    0 0.12449772E+01 -.13023497E+02 -.35463273E+02 0.37799539E+02 0.51099893E-03 0.0000E+00 0.9000E+01
        1  1    1    2  502    0 -.14098097E+02 -.97565546E+01 0.13908414E+03 0.14013724E+03 0.32000000E+00 0.0000E+00 0.9000E+01
#aMCatNLO 2  0  0  2  1 0.17144873E+02 0.00000000E+00  9  5  0 0.00000000E+00 0.00000000E+00 0.00000000E+00 0.00000000E+00 0.00000000E+00
  <rwgt>
   <wgt id='1001'> 0.15478E+04 </wgt>
   <wgt id='1002'> 0.13722E+04 </wgt>
   <wgt id='1003'> 0.17769E+04 </wgt>
   <wgt id='1004'> 0.16176E+04 </wgt>
   <wgt id='1005'> 0.14341E+04 </wgt>
   <wgt id='1006'> 0.18570E+04 </wgt>
   <wgt id='1007'> 0.14384E+04 </wgt>
   <wgt id='1008'> 0.12752E+04 </wgt>
   <wgt id='1009'> 0.16511E+04 </wgt>
  </rwgt>
  </event>
  <event>
  5      0 0.15478455E+04 0.39531596E+02 0.75467711E-02 0.12249029E+00
        2 -1    0    0  501    0 0.00000000E+00 0.00000000E+00 0.19266932E+04 0.19266933E+04 0.32000000E+00 0.0000E+00 0.9000E+01
       -2 -1    0    0    0  501 0.00000000E+00 0.00000000E+00 -.10670561E+01 0.11140057E+01 0.32000000E+00 0.0000E+00 0.9000E+01
       23  2    1    2    0    0 0.00000000E+00 0.00000000E+00 0.19256262E+04 0.19278073E+04 0.91677035E+02 0.0000E+00 0.0000E+00
      -11  1    3    3    0    0 0.30067162E+02 0.25665401E+02 0.47487502E+03 0.47651761E+03 0.51099893E-03 0.0000E+00 0.9000E+01
       11  1    3    3    0    0 -.30067162E+02 -.25665401E+02 0.14507512E+04 0.14512897E+04 0.51099893E-03 0.0000E+00 0.9000E+01
#aMCatNLO 1  0  0  2  2 0.49700320E+02 0.00000000E+00  9  5  0 0.00000000E+00 0.00000000E+00 0.00000000E+00 0.00000000E+00 0.00000000E+00
  <rwgt>
   <wgt id='1001'> 0.15479E+04 </wgt>
   <wgt id='1002'> 0.14864E+04 </wgt>
   <wgt id='1003'> 0.16266E+04 </wgt>
   <wgt id='1004'> 0.11157E+04 </wgt>
   <wgt id='1005'> 0.11041E+04 </wgt>
   <wgt id='1006'> 0.11306E+04 </wgt>
   <wgt id='1007'> 0.19583E+04 </wgt>
   <wgt id='1008'> 0.18477E+04 </wgt>
   <wgt id='1009'> 0.21000E+04 </wgt>
  </rwgt>
  </event>
  <event>
  5      0 0.15478455E+04 0.18776324E+02 0.75467711E-02 0.15481931E+00
        2 -1    0    0  501    0 0.00000000E+00 0.00000000E+00 0.18624511E+04 0.18624511E+04 0.32000000E+00 0.0000E+00 0.9000E+01
       -2 -1    0    0    0  501 0.00000000E+00 0.00000000E+00 -.11259980E+01 0.11705860E+01 0.32000000E+00 0.0000E+00 0.9000E+01
       23  2    1    2    0    0 0.00000000E+00 0.00000000E+00 0.18613251E+04 0.18636217E+04 0.92491922E+02 0.0000E+00 0.0000E+00
      -11  1    3    3    0    0 0.10361024E+02 0.14680101E+01 0.23020585E+02 0.25287412E+02 0.51099893E-03 0.0000E+00 0.9000E+01
       11  1    3    3    0    0 -.10361024E+02 -.14680101E+01 0.18383045E+04 0.18383343E+04 0.51099893E-03 0.0000E+00 0.9000E+01
#aMCatNLO 1  0  0  2  1 0.13419321E+02 0.00000000E+00  9  5  0 0.00000000E+00 0.00000000E+00 0.00000000E+00 0.00000000E+00 0.00000000E+00
  <rwgt>
   <wgt id='1001'> 0.15479E+04 </wgt>
   <wgt id='1002'> 0.14464E+04 </wgt>
   <wgt id='1003'> 0.16810E+04 </wgt>
   <wgt id='1004'> 0.14054E+04 </wgt>
   <wgt id='1005'> 0.13322E+04 </wgt>
   <wgt id='1006'> 0.14987E+04 </wgt>
   <wgt id='1007'> 0.15470E+04 </wgt>
   <wgt id='1008'> 0.14336E+04 </wgt>
   <wgt id='1009'> 0.16976E+04 </wgt>
  </rwgt>
  </event>
  <event>
  5      0 0.15478455E+04 0.30400717E+02 0.75467711E-02 0.13224525E+00
       -1 -1    0    0    0  501 0.00000000E+00 0.00000000E+00 0.33129352E+02 0.33130898E+02 0.32000000E+00 0.0000E+00 0.9000E+01
        1 -1    0    0  501    0 0.00000000E+00 0.00000000E+00 -.61475980E+02 0.61476813E+02 0.32000000E+00 0.0000E+00 0.9000E+01
       23  2    1    2    0    0 0.00000000E+00 0.00000000E+00 -.28346628E+02 0.94607711E+02 0.90261219E+02 0.0000E+00 0.0000E+00
      -11  1    3    3    0    0 0.10659911E+02 -.43433609E+02 -.20519614E+02 0.49205352E+02 0.51099893E-03 0.0000E+00 0.9000E+01
       11  1    3    3    0    0 -.10659911E+02 0.43433609E+02 -.78270138E+01 0.45402359E+02 0.51099893E-03 0.0000E+00 0.9000E+01
#aMCatNLO 1  0  0  1  2 0.17710279E+02 0.00000000E+00  9  5  0 0.00000000E+00 0.00000000E+00 0.00000000E+00 0.00000000E+00 0.00000000E+00
  <rwgt>
   <wgt id='1001'> 0.15479E+04 </wgt>
   <wgt id='1002'> 0.13852E+04 </wgt>
   <wgt id='1003'> 0.17552E+04 </wgt>
   <wgt id='1004'> 0.17103E+04 </wgt>
   <wgt id='1005'> 0.15305E+04 </wgt>
   <wgt id='1006'> 0.19394E+04 </wgt>
   <wgt id='1007'> 0.13606E+04 </wgt>
   <wgt id='1008'> 0.12176E+04 </wgt>
   <wgt id='1009'> 0.15430E+04 </wgt>
  </rwgt>
  </event>
  <event>
  5      0 0.15478455E+04 0.46048980E+02 0.75467711E-02 0.12962146E+00
       -2 -1    0    0    0  501 0.00000000E+00 0.00000000E+00 0.75289615E+01 0.75357588E+01 0.32000000E+00 0.0000E+00 0.9000E+01
        2 -1    0    0  501    0 0.00000000E+00 0.00000000E+00 -.28610914E+03 0.28610932E+03 0.32000000E+00 0.0000E+00 0.9000E+01
       23  2    1    2    0    0 0.00000000E+00 0.00000000E+00 -.27858018E+03 0.29364508E+03 0.92846733E+02 0.0000E+00 0.0000E+00
      -11  1    3    3    0    0 0.34271963E+01 0.45921268E+02 -.12068111E+03 0.12916826E+03 0.51099893E-03 0.0000E+00 0.9000E+01
       11  1    3    3    0    0 -.34271963E+01 -.45921268E+02 -.15789907E+03 0.16447682E+03 0.51099893E-03 0.0000E+00 0.9000E+01
#aMCatNLO 1  0  0  2  1 0.83012942E+01 0.00000000E+00  9  5  0 0.00000000E+00 0.00000000E+00 0.00000000E+00 0.00000000E+00 0.00000000E+00
  <rwgt>
   <wgt id='1001'> 0.15479E+04 </wgt>
   <wgt id='1002'> 0.15482E+04 </wgt>
   <wgt id='1003'> 0.15474E+04 </wgt>
   <wgt id='1004'> 0.16870E+04 </wgt>
   <wgt id='1005'> 0.16890E+04 </wgt>
   <wgt id='1006'> 0.16846E+04 </wgt>
   <wgt id='1007'> 0.13845E+04 </wgt>
   <wgt id='1008'> 0.13835E+04 </wgt>
   <wgt id='1009'> 0.13857E+04 </wgt>
  </rwgt>
  </event>
  <event>
  5      0 0.15478455E+04 0.30377652E+02 0.75467711E-02 0.11755642E+00
       -3 -1    0    0    0  501 0.00000000E+00 0.00000000E+00 0.55302818E+02 0.55305078E+02 0.50000000E+00 0.0000E+00 0.9000E+01
        3 -1    0    0  501    0 0.00000000E+00 0.00000000E+00 -.37336036E+02 0.37339384E+02 0.50000000E+00 0.0000E+00 0.9000E+01
       23  2    1    2    0    0 0.00000000E+00 0.00000000E+00 0.17966782E+02 0.92644461E+02 0.90885593E+02 0.0000E+00 0.0000E+00
      -11  1    3    3    0    0 -.15464284E+01 0.30338264E+02 0.43434582E+02 0.53003440E+02 0.51099893E-03 0.0000E+00 0.9000E+01
       11  1    3    3    0    0 0.15464284E+01 -.30338264E+02 -.25467800E+02 0.39641021E+02 0.51099893E-03 0.0000E+00 0.9000E+01
#aMCatNLO 1  0  0  2  2 0.83686943E+02 0.00000000E+00  9  5  0 0.00000000E+00 0.00000000E+00 0.00000000E+00 0.00000000E+00 0.00000000E+00
  <rwgt>
   <wgt id='1001'> 0.15479E+04 </wgt>
   <wgt id='1002'> 0.15432E+04 </wgt>
   <wgt id='1003'> 0.15540E+04 </wgt>
   <wgt id='1004'> 0.17676E+04 </wgt>
   <wgt id='1005'> 0.17640E+04 </wgt>
   <wgt id='1006'> 0.17723E+04 </wgt>
   <wgt id='1007'> 0.12917E+04 </wgt>
   <wgt id='1008'> 0.12865E+04 </wgt>
   <wgt id='1009'> 0.12984E+04 </wgt>
  </rwgt>
  </event>
  <event>
  5      0 0.15478455E+04 0.29439140E+02 0.75467711E-02 0.12943312E+00
        3 -1    0    0  501    0 0.00000000E+00 0.00000000E+00 0.22716271E+02 0.22721773E+02 0.50000000E+00 0.0000E+00 0.9000E+01
       -3 -1    0    0    0  501 0.00000000E+00 0.00000000E+00 -.91186300E+02 0.91187671E+02 0.50000000E+00 0.0000E+00 0.9000E+01
       23  2    1    2    0    0 0.00000000E+00 0.00000000E+00 -.68470029E+02 0.11390944E+03 0.91034151E+02 0.0000E+00 0.0000E+00
      -11  1    3    3    0    0 -.29928520E+02 -.33678242E+02 -.26138928E+02 0.52088232E+02 0.51099893E-03 0.0000E+00 0.9000E+01
       11  1    3    3    0    0 0.29928520E+02 0.33678242E+02 -.42331101E+02 0.61821213E+02 0.51099893E-03 0.0000E+00 0.9000E+01
#aMCatNLO 1  0  0  2  1 0.10898593E+02 0.00000000E+00  9  5  0 0.00000000E+00 0.00000000E+00 0.00000000E+00 0.00000000E+00 0.00000000E+00
  <rwgt>
   <wgt id='1001'> 0.15478E+04 </wgt>
   <wgt id='1002'> 0.15094E+04 </wgt>
   <wgt id='1003'> 0.15958E+04 </wgt>
   <wgt id='1004'> 0.16978E+04 </wgt>
   <wgt id='1005'> 0.16594E+04 </wgt>
   <wgt id='1006'> 0.17458E+04 </wgt>
   <wgt id='1007'> 0.13657E+04 </wgt>
   <wgt id='1008'> 0.13284E+04 </wgt>
   <wgt id='1009'> 0.14124E+04 </wgt>
  </rwgt>
  </event>
  <event>
  6      0 0.15478455E+04 0.43119200E+02 0.75467711E-02 0.12846523E+00
        1 -1    0    0  502    0 0.00000000E+00 0.00000000E+00 0.13561779E+03 0.13561816E+03 0.32000000E+00 0.0000E+00 0.9000E+01
       -1 -1    0    0    0  501 0.00000000E+00 0.00000000E+00 -.21256795E+02 0.21259204E+02 0.32000000E+00 0.0000E+00 0.9000E+01
       23  2    1    2    0    0 0.70601164E+01 0.16814448E+02 0.94456921E+02 0.12987171E+03 0.87246667E+02 0.0000E+00 0.0000E+00
      -11  1    3    3    0    0 0.45869171E+02 0.18075288E+02 0.43079885E+02 0.65471928E+02 0.51099893E-03 0.0000E+00 0.9000E+01
       11  1    3    3    0    0 -.38809054E+02 -.12608406E+01 0.51377036E+02 0.64399785E+02 0.51099893E-03 0.0000E+00 0.9000E+01
       21  1    1    2  502  501 -.70601164E+01 -.16814448E+02 0.19904069E+02 0.27005654E+02 0.75000000E+00 0.0000E+00 0.9000E+01
#aMCatNLO 2  0  0  1  1 0.18236526E+02 0.00000000E+00  9  5  0 0.00000000E+00 0.00000000E+00 0.00000000E+00 0.00000000E+00 0.00000000E+00
  <rwgt>
   <wgt id='1001'> 0.15478E+04 </wgt>
   <wgt id='1002'> 0.13895E+04 </wgt>
   <wgt id='1003'> 0.17482E+04 </wgt>
   <wgt id='1004'> 0.16796E+04 </wgt>
   <wgt id='1005'> 0.15078E+04 </wgt>
   <wgt id='1006'> 0.18970E+04 </wgt>
   <wgt id='1007'> 0.13929E+04 </wgt>
   <wgt id='1008'> 0.12505E+04 </wgt>
   <wgt id='1009'> 0.15732E+04 </wgt>
  </rwgt>
  </event>
  <event>
  5      0 -.15478455E+04 0.30000000E+02 0.75467711E-02 0.23558795E+00
        1 -1    0    0  501    0 0.00000000E+00 0.00000000E+00 0.70106619E+03 0.70106626E+03 0.32000000E+00 0.0000E+00 0.9000E+01
       -1 -1    0    0    0  501 0.00000000E+00 0.00000000E+00 -.30125993E+01 0.30295470E+01 0.32000000E+00 0.0000E+00 0.9000E+01
       23  2    1    2    0    0 0.00000000E+00 0.00000000E+00 0.69805359E+03 0.70409581E+03 0.92043980E+02 0.0000E+00 0.0000E+00
      -11  1    3    3    0    0 0.36071893E+01 0.13173173E-01 0.69999164E+03 0.70000093E+03 0.51099893E-03 0.0000E+00 0.9000E+01
       11  1    3    3    0    0 -.36071893E+01 -.13173173E-01 -.19380480E+01 0.40948771E+01 0.51099893E-03 0.0000E+00 0.9000E+01
#aMCatNLO 1  0  0  2  1 0.10898593E+02 0.00000000E+00  9  5  0 0.00000000E+00 0.00000000E+00 0.00000000E+00 0.00000000E+00 0.00000000E+00
  <rwgt>
   <wgt id='1001'> -.15478E+04 </wgt>
   <wgt id='1002'> -.12650E+04 </wgt>
   <wgt id='1003'> -.20508E+04 </wgt>
   <wgt id='1004'> -.19384E+04 </wgt>
   <wgt id='1005'> -.15840E+04 </wgt>
   <wgt id='1006'> -.25682E+04 </wgt>
   <wgt id='1007'> -.11285E+04 </wgt>
   <wgt id='1008'> -.92220E+03 </wgt>
   <wgt id='1009'> -.14951E+04 </wgt>
  </rwgt>
  </event>
  <event>
  5      0 0.15478455E+04 0.30000000E+02 0.75467711E-02 0.11394042E+00
        2 -1    0    0  501    0 0.00000000E+00 0.00000000E+00 0.34068417E+03 0.34068432E+03 0.32000000E+00 0.0000E+00 0.9000E+01
       -2 -1    0    0    0  501 0.00000000E+00 0.00000000E+00 -.47911821E+01 0.48018565E+01 0.32000000E+00 0.0000E+00 0.9000E+01
       23  2    1    2    0    0 0.00000000E+00 0.00000000E+00 0.33589299E+03 0.34548617E+03 0.80849236E+02 0.0000E+00 0.0000E+00
      -11  1    3    3    0    0 -.19498565E+02 0.17423280E+02 0.29968251E+03 0.30082117E+03 0.51099893E-03 0.0000E+00 0.9000E+01
       11  1    3    3    0    0 0.19498565E+02 -.17423280E+02 0.36210471E+02 0.44665008E+02 0.51099893E-03 0.0000E+00 0.9000E+01
#aMCatNLO 1  0  0  1  1 0.10963953E+03 0.00000000E+00  9  5  0 0.00000000E+00 0.00000000E+00 0.00000000E+00 0.00000000E+00 0.00000000E+00
  <rwgt>
   <wgt id='1001'> 0.15479E+04 </wgt>
   <wgt id='1002'> 0.15509E+04 </wgt>
   <wgt id='1003'> 0.15439E+04 </wgt>
   <wgt id='1004'> 0.17334E+04 </wgt>
   <wgt id='1005'> 0.17388E+04 </wgt>
   <wgt id='1006'> 0.17263E+04 </wgt>
   <wgt id='1007'> 0.13341E+04 </wgt>
   <wgt id='1008'> 0.13352E+04 </wgt>
   <wgt id='1009'> 0.13327E+04 </wgt>
  </rwgt>
  </event>
  <event>
  5      0 0.15478455E+04 0.51012565E+02 0.75467711E-02 0.12036913E+00
       -3 -1    0    0    0  501 0.00000000E+00 0.00000000E+00 0.21978828E+01 0.22540384E+01 0.50000000E+00 0.0000E+00 0.9000E+01
        3 -1    0    0  501    0 0.00000000E+00 0.00000000E+00 -.11690329E+04 0.11690330E+04 0.50000000E+00 0.0000E+00 0.9000E+01
       23  2    1    2    0    0 0.00000000E+00 0.00000000E+00 -.11668350E+04 0.11712871E+04 0.10202640E+03 0.0000E+00 0.0000E+00
      -11  1    3    3    0    0 0.33969201E+02 -.38057525E+02 -.58050202E+03 0.58273912E+03 0.51099893E-03 0.0000E+00 0.9000E+01
       11  1    3    3    0    0 -.33969201E+02 0.38057525E+02 -.58633301E+03 0.58854795E+03 0.51099893E-03 0.0000E+00 0.9000E+01
#aMCatNLO 1  0  0  2  1 0.47519496E+02 0.00000000E+00  9  5  0 0.00000000E+00 0.00000000E+00 0.00000000E+00 0.00000000E+00 0.00000000E+00
  <rwgt>
   <wgt id='1001'> 0.15479E+04 </wgt>
   <wgt id='1002'> 0.15487E+04 </wgt>
   <wgt id='1003'> 0.15469E+04 </wgt>
   <wgt id='1004'> 0.16167E+04 </wgt>
   <wgt id='1005'> 0.16190E+04 </wgt>
   <wgt id='1006'> 0.16138E+04 </wgt>
   <wgt id='1007'> 0.14502E+04 </wgt>
   <wgt id='1008'> 0.14496E+04 </wgt>
   <wgt id='1009'> 0.14509E+04 </wgt>
  </rwgt>
  </event>
  <event>
  5      0 0.15478455E+04 0.19650422E+02 0.75467711E-02 0.14531841E+00
       -2 -1    0    0    0  501 0.00000000E+00 0.00000000E+00 0.52691869E+03 0.52691878E+03 0.32000000E+00 0.0000E+00 0.9000E+01
        2 -1    0    0  501    0 0.00000000E+00 0.00000000E+00 -.37943761E+01 0.38078458E+01 0.32000000E+00 0.0000E+00 0.9000E+01
       23  2    1    2    0    0 0.00000000E+00 0.00000000E+00 0.52312431E+03 0.53072663E+03 0.89508162E+02 0.0000E+00 0.0000E+00
      -11  1    3    3    0    0 0.14102164E+02 0.19365622E+02 0.37417274E+02 0.44429165E+02 0.51099893E-03 0.0000E+00 0.9000E+01
       11  1    3    3    0    0 -.14102164E+02 -.19365622E+02 0.48570704E+03 0.48629746E+03 0.51099893E-03 0.0000E+00 0.9000E+01
#aMCatNLO 1  0  0  1  2 0.47481166E+01 0.00000000E+00  9  5  0 0.00000000E+00 0.00000000E+00 0.00000000E+00 0.00000000E+00 0.00000000E+00
  <rwgt>
   <wgt id='1001'> 0.15479E+04 </wgt>
   <wgt id='1002'> 0.14552E+04 </wgt>
   <wgt id='1003'> 0.16686E+04 </wgt>
   <wgt id='1004'> 0.19894E+04 </wgt>
   <wgt id='1005'> 0.18528E+04 </wgt>
   <wgt id='1006'> 0.21677E+04 </wgt>
   <wgt id='1007'> 0.11619E+04 </wgt>
   <wgt id='1008'> 0.11049E+04 </wgt>
   <wgt id='1009'> 0.12359E+04 </wgt>
  </rwgt>
  </event>
  <event>
  5      0 -.15478455E+04 0.19934315E+02 0.75467711E-02 0.17309454E+00
       -2 -1    0    0    0  501 0.00000000E+00 0.00000000E+00 0.51231335E+02 0.51232334E+02 0.32000000E+00 0.0000E+00 0.9000E+01
        2 -1    0    0  501    0 0.00000000E+00 0.00000000E+00 -.40654368E+02 0.40655627E+02 0.32000000E+00 0.0000E+00 0.9000E+01
       23  2    1    2    0    0 0.00000000E+00 0.00000000E+00 0.10576967E+02 0.91887961E+02 0.91277189E+02 0.0000E+00 0.0000E+00
      -11  1    3    3    0    0 -.40536477E+01 -.10507188E+02 0.49811660E+02 0.51068919E+02 0.51099893E-03 0.0000E+00 0.9000E+01
       11  1    3    3    0    0 0.40536477E+01 0.10507188E+02 -.39234693E+02 0.40819042E+02 0.51099893E-03 0.0000E+00 0.9000E+01
#aMCatNLO 1  0  0  1  2 0.47481166E+01 0.00000000E+00  9  5  0 0.00000000E+00 0.00000000E+00 0.00000000E+00 0.00000000E+00 0.00000000E+00
  <rwgt>
   <wgt id='1001'> -.15479E+04 </wgt>
   <wgt id='1002'> -.13391E+04 </wgt>
   <wgt id='1003'> -.18371E+04 </wgt>
   <wgt id='1004'> -.18183E+04 </wgt>
   <wgt id='1005'> -.15731E+04 </wgt>
   <wgt id='1006'> -.21581E+04 </wgt>
   <wgt id='1007'> -.12373E+04 </wgt>
   <wgt id='1008'> -.10704E+04 </wgt>
   <wgt id='1009'> -.14685E+04 </wgt>
  </rwgt>
  </event>
  <event>
  5      0 0.15478455E+04 0.30000000E+02 0.75467711E-02 0.12079706E+00
        1 -1    0    0  501    0 0.00000000E+00 0.00000000E+00 0.59325674E+03 0.59325683E+03 0.32000000E+00 0.0000E+00 0.9000E+01
       -1 -1    0    0    0  501 0.00000000E+00 0.00000000E+00 -.33032505E+01 0.33187142E+01 0.32000000E+00 0.0000E+00 0.9000E+01
       23  2    1    2    0    0 0.00000000E+00 0.00000000E+00 0.58995349E+03 0.59657554E+03 0.88641163E+02 0.0000E+00 0.0000E+00
      -11  1    3    3    0    0 -.13187607E+01 -.22611222E+02 0.38581650E+02 0.44738688E+02 0.51099893E-03 0.0000E+00 0.9000E+01
       11  1    3    3    0    0 0.13187607E+01 0.22611222E+02 0.55137184E+03 0.55183685E+03 0.51099893E-03 0.0000E+00 0.9000E+01
#aMCatNLO 1  0  0  2  1 0.77849601E+02 0.00000000E+00  9  5  0 0.00000000E+00 0.00000000E+00 0.00000000E+00 0.00000000E+00 0.00000000E+00
  <rwgt>
   <wgt id='1001'> 0.15478E+04 </wgt>
   <wgt id='1002'> 0.15433E+04 </wgt>
   <wgt id='1003'> 0.15538E+04 </wgt>
   <wgt id='1004'> 0.17032E+04 </wgt>
   <wgt id='1005'> 0.17001E+04 </wgt>
   <wgt id='1006'> 0.17072E+04 </wgt>
   <wgt id='1007'> 0.13594E+04 </wgt>
   <wgt id='1008'> 0.13539E+04 </wgt>
   <wgt id='1009'> 0.13667E+04 </wgt>
  </rwgt>
  </event>
  <event>
  5      0 0.15478455E+04 0.30000000E+02 0.75467711E-02 0.12747333E+00
        2 -1    0    0  501    0 0.00000000E+00 0.00000000E+00 0.26202492E+03 0.26202511E+03 0.32000000E+00 0.0000E+00 0.9000E+01
       21 -1    0    0  502  501 0.00000000E+00 0.00000000E+00 -.16351789E+02 0.16368980E+02 0.75000000E+00 0.0000E+00 0.9000E+01
      -11  1    1    2    0    0 0.39757642E+02 -.20047677E+02 0.17477044E+03 0.18035322E+03 0.51099893E-03 0.0000E+00 0.9000E+01
       11  1    1    2    0    0 0.33550035E+01 -.12514216E+02 0.84837867E+01 0.15486649E+02 0.51099893E-03 0.0000E+00 0.9000E+01
        2  1    1    2  502    0 -.43112646E+02 0.32561894E+02 0.62418905E+02 0.82554220E+02 0.32000000E+00 0.0000E+00 0.9000E+01
#aMCatNLO 2  0  0  2  1 0.54027559E+02 0.00000000E+00  9  5  0 0.00000000E+00 0.00000000E+00 0.00000000E+00 0.00000000E+00 0.00000000E+00
  <rwgt>
   <wgt id='1001'> 0.15478E+04 </wgt>
   <wgt id='1002'> 0.13906E+04 </wgt>
   <wgt id='1003'> 0.17463E+04 </wgt>
   <wgt id='1004'> 0.16404E+04 </wgt>
   <wgt id='1005'> 0.14738E+04 </wgt>
   <wgt id='1006'> 0.18508E+04 </wgt>
   <wgt id='1007'> 0.14254E+04 </wgt>
   <wgt id='1008'> 0.12806E+04 </wgt>
   <wgt id='1009'> 0.16082E+04 </wgt>
  </rwgt>
  </event>
  <event>
  4      0 0.15478455E+04 0.20530411E+02 0.75467711E-02 0.15319820E+00
        2 -1    0    0  501    0 0.00000000E+00 0.00000000E+00 0.36930518E+03 0.36930531E+03 0.32000000E+00 0.0000E+00 0.9000E+01
       -2 -1    0    0    0  501 0.00000000E+00 0.00000000E+00 -.83245875E+00 0.89184504E+00 0.32000000E+00 0.0000E+00 0.9000E+01
      -11  1    1    2    0    0 0.16962488E+02 -.62002825E+00 0.24136802E+03 0.24196412E+03 0.51099893E-03 0.0000E+00 0.9000E+01
       11  1    1    2    0    0 -.16962488E+02 0.62002825E+00 0.12710469E+03 0.12823304E+03 0.51099893E-03 0.0000E+00 0.9000E+01
#aMCatNLO 1  0  0  2  1 0.57032507E+01 0.00000000E+00  9  5  0 0.00000000E+00 0.00000000E+00 0.00000000E+00 0.00000000E+00 0.00000000E+00
  <rwgt>
   <wgt id='1001'> 0.15478E+04 </wgt>
   <wgt id='1002'> 0.14843E+04 </wgt>
   <wgt id='1003'> 0.16278E+04 </wgt>
   <wgt id='1004'> 0.15601E+04 </wgt>
   <wgt id='1005'> 0.15228E+04 </wgt>
   <wgt id='1006'> 0.16037E+04 </wgt>
   <wgt id='1007'> 0.14122E+04 </wgt>
   <wgt id='1008'> 0.13371E+04 </wgt>
   <wgt id='1009'> 0.15090E+04 </wgt>
  </rwgt>
  </event>
  <event>
  5      0 0.15478455E+04 0.19069579E+02 0.75467711E-02 0.14778128E+00
        1 -1    0    0  501    0 0.00000000E+00 0.00000000E+00 0.17950466E+03 0.17950494E+03 0.32000000E+00 0.0000E+00 0.9000E+01
       -1 -1    0    0    0  501 0.00000000E+00 0.00000000E+00 -.92850084E+01 0.92905210E+01 0.32000000E+00 0.0000E+00 0.9000E+01
       23  2    1    2    0    0 0.00000000E+00 0.00000000E+00 0.17021965E+03 0.18879546E+03 0.81663935E+02 0.0000E+00 0.0000E+00
      -11  1    3    3    0    0 -.17158191E+02 -.63486829E+00 -.53643712E+00 0.17178310E+02 0.51099893E-03 0.0000E+00 0.9000E+01
       11  1    3    3    0    0 0.17158191E+02 0.63486829E+00 0.17075609E+03 0.17161716E+03 0.51099893E-03 0.0000E+00 0.9000E+01
#aMCatNLO 1  0  0  2  1 0.13258210E+02 0.00000000E+00  9  5  0 0.00000000E+00 0.00000000E+00 0.00000000E+00 0.00000000E+00 0.00000000E+00
  <rwgt>
   <wgt id='1001'> 0.15478E+04 </wgt>
   <wgt id='1002'> 0.14721E+04 </wgt>
   <wgt id='1003'> 0.16458E+04 </wgt>
   <wgt id='1004'> 0.15552E+04 </wgt>
   <wgt id='1005'> 0.14961E+04 </wgt>
   <wgt id='1006'> 0.16302E+04 </wgt>
   <wgt id='1007'> 0.14690E+04 </wgt>
   <wgt id='1008'> 0.13831E+04 </wgt>
   <wgt id='1009'> 0.15811E+04 </wgt>
  </rwgt>
  </event>
  <event>
  5      0 0.15478455E+04 0.45891660E+02 0.75467711E-02 0.10306227E+00
       -1 -1    0    0    0  501 0.00000000E+00 0.00000000E+00 0.20498086E+02 0.20500584E+02 0.32000000E+00 0.0000E+00 0.9000E+01
        1 -1    0    0  501    0 0.00000000E+00 0.00000000E+00 -.10334313E+03 0.10334363E+03 0.32000000E+00 0.0000E+00 0.9000E+01
       23  2    1    2    0    0 0.00000000E+00 0.00000000E+00 -.82845048E+02 0.12384421E+03 0.92054805E+02 0.0000E+00 0.0000E+00
      -11  1    3    3    0    0 -.34180196E+02 0.30622846E+02 -.46174664E+02 0.65101030E+02 0.51099893E-03 0.0000E+00 0.9000E+01
       11  1    3    3    0    0 0.34180196E+02 -.30622846E+02 -.36670383E+02 0.58743183E+02 0.51099893E-03 0.0000E+00 0.9000E+01
#aMCatNLO 1  0  0  2  2 0.23924272E+03 0.00000000E+00  9  5  0 0.00000000E+00 0.00000000E+00 0.00000000E+00 0.00000000E+00 0.00000000E+00
  <rwgt>
   <wgt id='1001'> 0.15479E+04 </wgt>
   <wgt id='1002'> 0.15478E+04 </wgt>
   <wgt id='1003'> 0.15479E+04 </wgt>
   <wgt id='1004'> 0.16891E+04 </wgt>
   <wgt id='1005'> 0.16906E+04 </wgt>
   <wgt id='1006'> 0.16871E+04 </wgt>
   <wgt id='1007'> 0.13798E+04 </wgt>
   <wgt id='1008'> 0.13784E+04 </wgt>
   <wgt id='1009'> 0.13815E+04 </wgt>
  </rwgt>
  </event>
  <event>
  5      0 0.15478455E+04 0.36037267E+02 0.75467711E-02 0.11420512E+00
        2 -1    0    0  501    0 0.00000000E+00 0.00000000E+00 0.64448521E+02 0.64449316E+02 0.32000000E+00 0.0000E+00 0.9000E+01
       -2 -1    0    0    0  501 0.00000000E+00 0.00000000E+00 -.31861532E+02 0.31863139E+02 0.32000000E+00 0.0000E+00 0.9000E+01
       23  2    1    2    0    0 0.00000000E+00 0.00000000E+00 0.32586990E+02 0.96312454E+02 0.90632097E+02 0.0000E+00 0.0000E+00
      -11  1    3    3    0    0 0.35513944E+02 -.61191868E+01 -.12903188E+02 0.38277629E+02 0.51099893E-03 0.0000E+00 0.9000E+01
       11  1    3    3    0    0 -.35513944E+02 0.61191868E+01 0.45490178E+02 0.58034825E+02 0.51099893E-03 0.0000E+00 0.9000E+01
#aMCatNLO 1  0  0  2  1 0.10397115E+03 0.00000000E+00  9  5  0 0.00000000E+00 0.00000000E+00 0.00000000E+00 0.00000000E+00 0.00000000E+00
  <rwgt>
   <wgt id='1001'> 0.15479E+04 </wgt>
   <wgt id='1002'> 0.15162E+04 </wgt>
   <wgt id='1003'> 0.15886E+04 </wgt>
   <wgt id='1004'> 0.14503E+04 </wgt>
   <wgt id='1005'> 0.14441E+04 </wgt>
   <wgt id='1006'> 0.14581E+04 </wgt>
   <wgt id='1007'> 0.16214E+04 </wgt>
   <wgt id='1008'> 0.15646E+04 </wgt>
   <wgt id='1009'> 0.16946E+04 </wgt>
  </rwgt>
  </event>
  <event>
  5      0 0.15478455E+04 0.39689017E+02 0.75467711E-02 0.11729198E+00
       -2 -1    0    0    0  501 0.00000000E+00 0.00000000E+00 0.16131907E+02 0.16135080E+02 0.32000000E+00 0.0000E+00 0.9000E+01
        2 -1    0    0  501    0 0.00000000E+00 0.00000000E+00 -.13131276E+03 0.13131315E+03 0.32000000E+00 0.0000E+00 0.9000E+01
       23  2    1    2    0    0 0.00000000E+00 0.00000000E+00 -.11518085E+03 0.14744823E+03 0.92056241E+02 0.0000E+00 0.0000E+00
      -11  1    3    3    0    0 -.15758475E+02 -.36426481E+02 -.20253884E+02 0.44558253E+02 0.51099893E-03 0.0000E+00 0.9000E+01
       11  1    3    3    0    0 0.15758475E+02 0.36426481E+02 -.94926966E+02 0.10288997E+03 0.51099893E-03 0.0000E+00 0.9000E+01
#aMCatNLO 1  0  0  2  2 0.78453240E+02 0.00000000E+00  9  5  0 0.00000000E+00 0.00000000E+00 0.00000000E+00 0.00000000E+00 0.00000000E+00
  <rwgt>
   <wgt id='1001'> 0.15479E+04 </wgt>
   <wgt id='1002'> 0.15469E+04 </wgt>
   <wgt id='1003'> 0.15491E+04 </wgt>
   <wgt id='1004'> 0.13596E+04 </wgt>
   <wgt id='1005'> 0.13961E+04 </wgt>
   <wgt id='1006'> 0.13127E+04 </wgt>
   <wgt id='1007'> 0.16842E+04 </wgt>
   <wgt id='1008'> 0.16488E+04 </wgt>
   <wgt id='1009'> 0.17295E+04 </wgt>
  </rwgt>
  </event>
  <event>
  6      0 -.15478455E+04 0.30296432E+02 0.75467711E-02 0.13926281E+00
        3 -1    0    0  502    0 0.00000000E+00 0.00000000E+00 0.28636178E+02 0.28640543E+02 0.50000000E+00 0.0000E+00 0.9000E+01
       -3 -1    0    0    0  501 0.00000000E+00 0.00000000E+00 -.76637683E+02 0.76639314E+02 0.50000000E+00 0.0000E+00 0.9000E+01
       23  2    1    2    0    0 0.41566306E+01 -.38447619E+01 -.45289351E+02 0.98957036E+02 0.87802676E+02 0.0000E+00 0.0000E+00
      -11  1    3    3    0    0 0.23964280E+02 0.19027377E+02 -.58439611E+02 0.65966021E+02 0.51099893E-03 0.0000E+00 0.9000E+01
       11  1    3    3    0    0 -.19807650E+02 -.22872139E+02 0.13150260E+02 0.32991015E+02 0.51099893E-03 0.0000E+00 0.9000E+01
       21  1    1    2  502  501 -.41566306E+01 0.38447619E+01 -.27121541E+01 0.63228199E+01 0.75000000E+00 0.0000E+00 0.9000E+01
#aMCatNLO 2  0  0  1  2 0.56621349E+01 0.00000000E+00  9  5  0 0.00000000E+00 0.00000000E+00 0.00000000E+00 0.00000000E+00 0.00000000E+00
  <rwgt>
   <wgt id='1001'> -.15478E+04 </wgt>
   <wgt id='1002'> -.13771E+04 </wgt>
   <wgt id='1003'> -.17686E+04 </wgt>
   <wgt id='1004'> -.17803E+04 </wgt>
   <wgt id='1005'> -.15838E+04 </wgt>
   <wgt id='1006'> -.20341E+04 </wgt>
   <wgt id='1007'> -.12852E+04 </wgt>
   <wgt id='1008'> -.11435E+04 </wgt>
   <wgt id='1009'> -.14685E+04 </wgt>
  </rwgt>
  </event>
  <event>
  5      0 0.15478455E+04 0.33689187E+02 0.75467711E-02 0.13334734E+00
        2 -1    0    0  501    0 0.00000000E+00 0.00000000E+00 0.26172597E+02 0.26174553E+02 0.32000000E+00 0.0000E+00 0.9000E+01
       -2 -1    0    0    0  501 0.00000000E+00 0.00000000E+00 -.79000099E+02 0.79000747E+02 0.32000000E+00 0.0000E+00 0.9000E+01
       23  2    1    2    0    0 0.00000000E+00 0.00000000E+00 -.52827502E+02 0.10517530E+03 0.90945582E+02 0.0000E+00 0.0000E+00
      -11  1    3    3    0    0 -.26825905E+02 0.20379699E+02 -.61734470E+02 0.70328558E+02 0.51099893E-03 0.0000E+00 0.9000E+01
       11  1    3    3    0    0 0.26825905E+02 -.20379699E+02 0.89069682E+01 0.34846742E+02 0.51099893E-03 0.0000E+00 0.9000E+01
#aMCatNLO 1  0  0  1  2 0.16692178E+02 0.00000000E+00  9  5  0 0.00000000E+00 0.00000000E+00 0.00000000E+00 0.00000000E+00 0.00000000E+00
  <rwgt>
   <wgt id='1001'> 0.15479E+04 </wgt>
   <wgt id='1002'> 0.15471E+04 </wgt>
   <wgt id='1003'> 0.15489E+04 </wgt>
   <wgt id='1004'> 0.16991E+04 </wgt>
   <wgt id='1005'> 0.17001E+04 </wgt>
   <wgt id='1006'> 0.16980E+04 </wgt>
   <wgt id='1007'> 0.13658E+04 </wgt>
   <wgt id='1008'> 0.13638E+04 </wgt>
   <wgt id='1009'> 0.13685E+04 </wgt>
  </rwgt>
  </event>
  <event>
  6      0 0.15478455E+04 0.36768703E+02 0.75467711E-02 0.12553210E+00
       21 -1    0    0  501  502 0.00000000E+00 0.00000000E+00 0.75024885E+02 0.75028634E+02 0.75000000E+00 0.0000E+00 0.9000E+01
       -1 -1    0    0    0  501 0.00000000E+00 0.00000000E+00 -.14382465E+03 0.14382500E+03 0.32000000E+00 0.0000E+00 0.9000E+01
       23  2    1    2    0    0 0.33971902E+02 0.21893703E+02 -.11884945E+03 0.15452248E+03 0.90103157E+02 0.0000E+00 0.0000E+00
      -11  1    3    3    0    0 0.32912416E+01 -.25494684E+02 -.32965757E+01 0.25916763E+02 0.51099893E-03 0.0000E+00 0.9000E+01
       11  1    3    3    0    0 0.30680660E+02 0.47388387E+02 -.11555288E+03 0.12860571E+03 0.51099893E-03 0.0000E+00 0.9000E+01
       -1  1    1    2    0  502 -.33971902E+02 -.21893703E+02 0.50049690E+02 0.64331161E+02 0.32000000E+00 0.0000E+00 0.9000E+01
#aMCatNLO 2  0  0  1  2 0.40415645E+02 0.00000000E+00  9  5  0 0.00000000E+00 0.00000000E+00 0.00000000E+00 0.00000000E+00 0.00000000E+00
  <rwgt>
   <wgt id='1001'> 0.15478E+04 </wgt>
   <wgt id='1002'> 0.13929E+04 </wgt>
   <wgt id='1003'> 0.17428E+04 </wgt>
   <wgt id='1004'> 0.15554E+04 </wgt>
   <wgt id='1005'> 0.13997E+04 </wgt>
   <wgt id='1006'> 0.17514E+04 </wgt>
   <wgt id='1007'> 0.15171E+04 </wgt>
   <wgt id='1008'> 0.13652E+04 </wgt>
   <wgt id='1009'> 0.17081E+04 </wgt>
  </rwgt>
  </event>
  <event>
  5      0 -.15478455E+04 0.20654476E+02 0.75467711E-02 0.14290876E+00
        3 -1    0    0  501    0 0.00000000E+00 0.00000000E+00 0.25909609E+03 0.25909657E+03 0.50000000E+00 0.0000E+00 0.9000E+01
       -3 -1    0    0    0  501 0.00000000E+00 0.00000000E+00 -.79379715E+01 0.79537030E+01 0.50000000E+00 0.0000E+00 0.9000E+01
       23  2    1    2    0    0 0.00000000E+00 0.00000000E+00 0.25115812E+03 0.26705027E+03 0.90749375E+02 0.0000E+00 0.0000E+00
      -11  1    3    3    0    0 0.28124051E+02 0.32248140E+01 0.22993171E+03 0.23166776E+03 0.51099893E-03 0.0000E+00 0.9000E+01
       11  1    3    3    0    0 -.28124051E+02 -.32248140E+01 0.21226407E+02 0.35382510E+02 0.51099893E-03 0.0000E+00 0.9000E+01
#aMCatNLO 1  0  0  2  1 0.10803299E+01 0.00000000E+00  9  5  0 0.00000000E+00 0.00000000E+00 0.00000000E+00 0.00000000E+00 0.00000000E+00
  <rwgt>
   <wgt id='1001'> -.15478E+04 </wgt>
   <wgt id='1002'> -.12661E+04 </wgt>
   <wgt id='1003'> -.19167E+04 </wgt>
   <wgt id='1004'> -.23666E+04 </wgt>
   <wgt id='1005'> -.19774E+04 </wgt>
   <wgt id='1006'> -.28758E+04 </wgt>
   <wgt id='1007'> -.80045E+03 </wgt>
   <wgt id='1008'> -.62038E+03 </wgt>
   <wgt id='1009'> -.10365E+04 </wgt>
  </rwgt>
  </event>
  <event>
  5      0 0.15478455E+04 0.19746474E+02 0.75467711E-02 0.14423738E+00
        1 -1    0    0  501    0 0.00000000E+00 0.00000000E+00 0.17003650E+02 0.17006661E+02 0.32000000E+00 0.0000E+00 0.9000E+01
       -1 -1    0    0    0  501 0.00000000E+00 0.00000000E+00 -.11605650E+03 0.11605695E+03 0.32000000E+00 0.0000E+00 0.9000E+01
       23  2    1    2    0    0 0.00000000E+00 0.00000000E+00 -.99052855E+02 0.13306361E+03 0.88850748E+02 0.0000E+00 0.0000E+00
      -11  1    3    3    0    0 0.14430838E+02 0.93940824E+01 0.11804531E+02 0.20876897E+02 0.51099893E-03 0.0000E+00 0.9000E+01
       11  1    3    3    0    0 -.14430838E+02 -.93940824E+01 -.11085739E+03 0.11218671E+03 0.51099893E-03 0.0000E+00 0.9000E+01
#aMCatNLO 1  0  0  1  2 0.17814763E+02 0.00000000E+00  9  5  0 0.00000000E+00 0.00000000E+00 0.00000000E+00 0.00000000E+00 0.00000000E+00
  <rwgt>
   <wgt id='1001'> 0.15478E+04 </wgt>
   <wgt id='1002'> 0.15142E+04 </wgt>
   <wgt id='1003'> 0.15800E+04 </wgt>
   <wgt id='1004'> 0.71598E+03 </wgt>
   <wgt id='1005'> 0.80757E+03 </wgt>
   <wgt id='1006'> 0.57889E+03 </wgt>
   <wgt id='1007'> 0.21356E+04 </wgt>
   <wgt id='1008'> 0.20033E+04 </wgt>
   <wgt id='1009'> 0.23018E+04 </wgt>
  </rwgt>
  </event>
  <event>
  5      0 0.15478455E+04 0.34804937E+02 0.75467711E-02 0.12302818E+00
        4 -1    0    0  501    0 0.00000000E+00 0.00000000E+00 0.42413903E+02 0.42442216E+02 0.15500000E+01 0.0000E+00 0.9000E+01
       -4 -1    0    0    0  501 0.00000000E+00 0.00000000E+00 -.50022972E+02 0.50046981E+02 0.15500000E+01 0.0000E+00 0.9000E+01
       23  2    1    2    0    0 0.00000000E+00 0.00000000E+00 -.76090694E+01 0.92489196E+02 0.92175666E+02 0.0000E+00 0.0000E+00
      -11  1    3    3    0    0 0.23584052E+02 0.25596408E+02 0.26509229E+02 0.43750690E+02 0.51099893E-03 0.0000E+00 0.9000E+01
       11  1    3    3    0    0 -.23584052E+02 -.25596408E+02 -.34118299E+02 0.48738506E+02 0.51099893E-03 0.0000E+00 0.9000E+01
#aMCatNLO 1  0  0  2  2 0.55702423E+02 0.00000000E+00  9  5  0 0.00000000E+00 0.00000000E+00 0.00000000E+00 0.00000000E+00 0.00000000E+00
  <rwgt>
   <wgt id='1001'> 0.15479E+04 </wgt>
   <wgt id='1002'> 0.15070E+04 </wgt>
   <wgt id='1003'> 0.16005E+04 </wgt>
   <wgt id='1004'> 0.13438E+04 </wgt>
   <wgt id='1005'> 0.13556E+04 </wgt>
   <wgt id='1006'> 0.13284E+04 </wgt>
   <wgt id='1007'> 0.16060E+04 </wgt>
   <wgt id='1008'> 0.15260E+04 </wgt>
   <wgt id='1009'> 0.17092E+04 </wgt>
  </rwgt>
  </event>
  <event>
  5      0 0.15478455E+04 0.21048366E+02 0.75467711E-02 0.13099269E+00
        2 -1    0    0  501    0 0.00000000E+00 0.00000000E+00 0.63587093E+02 0.63587898E+02 0.32000000E+00 0.0000E+00 0.9000E+01
       -2 -1    0    0    0  501 0.00000000E+00 0.00000000E+00 -.34133873E+02 0.34135373E+02 0.32000000E+00 0.0000E+00 0.9000E+01
       23  2    1    2    0    0 0.00000000E+00 0.00000000E+00 0.29453220E+02 0.97723271E+02 0.93179104E+02 0.0000E+00 0.0000E+00
      -11  1    3    3    0    0 -.11092791E+02 0.45237044E+02 0.13603770E+02 0.48523218E+02 0.51099893E-03 0.0000E+00 0.9000E+01
       11  1    3    3    0    0 0.11092791E+02 -.45237044E+02 0.15849450E+02 0.49200053E+02 0.51099893E-03 0.0000E+00 0.9000E+01
#aMCatNLO 1  0  0  1  2 0.14577628E+01 0.00000000E+00  9  5  0 0.00000000E+00 0.00000000E+00 0.00000000E+00 0.00000000E+00 0.00000000E+00
  <rwgt>
   <wgt id='1001'> 0.15479E+04 </wgt>
   <wgt id='1002'> 0.16105E+04 </wgt>
   <wgt id='1003'> 0.14639E+04 </wgt>
   <wgt id='1004'> 0.16908E+04 </wgt>
   <wgt id='1005'> 0.17603E+04 </wgt>
   <wgt id='1006'> 0.15978E+04 </wgt>
   <wgt id='1007'> 0.14695E+04 </wgt>
   <wgt id='1008'> 0.15152E+04 </wgt>
   <wgt id='1009'> 0.14077E+04 </wgt>
  </rwgt>
  </event>
  <event>
  5      0 0.15478455E+04 0.22741609E+02 0.75467711E-02 0.13034569E+00
        2 -1    0    0  501    0 0.00000000E+00 0.00000000E+00 0.74832640E+03 0.74832647E+03 0.32000000E+00 0.0000E+00 0.9000E+01
       -2 -1    0    0    0  501 0.00000000E+00 0.00000000E+00 -.27764668E+01 0.27948467E+01 0.32000000E+00 0.0000E+00 0.9000E+01
       23  2    1    2    0    0 0.00000000E+00 0.00000000E+00 0.74554994E+03 0.75112132E+03 0.91315536E+02 0.0000E+00 0.0000E+00
      -11  1    3    3    0    0 0.40318865E+02 -.53495170E+01 0.54342381E+03 0.54494373E+03 0.51099893E-03 0.0000E+00 0.9000E+01
       11  1    3    3    0    0 -.40318865E+02 0.53495170E+01 0.20212612E+03 0.20617759E+03 0.51099893E-03 0.0000E+00 0.9000E+01
#aMCatNLO 1  0  0  2  1 0.14967316E+02 0.00000000E+00  9  5  0 0.00000000E+00 0.00000000E+00 0.00000000E+00 0.00000000E+00 0.00000000E+00
  <rwgt>
   <wgt id='1001'> 0.15479E+04 </wgt>
   <wgt id='1002'> 0.15137E+04 </wgt>
   <wgt id='1003'> 0.15886E+04 </wgt>
   <wgt id='1004'> 0.14989E+04 </wgt>
   <wgt id='1005'> 0.14822E+04 </wgt>
   <wgt id='1006'> 0.15171E+04 </wgt>
   <wgt id='1007'> 0.15614E+04 </wgt>
   <wgt id='1008'> 0.15116E+04 </wgt>
   <wgt id='1009'> 0.16225E+04 </wgt>
  </rwgt>
  </event>
  <event>
  5      0 0.15478455E+04 0.15605811E+02 0.75467711E-02 0.15906891E+00
        1 -1    0    0  501    0 0.00000000E+00 0.00000000E+00 0.40925910E+03 0.40925922E+03 0.32000000E+00 0.0000E+00 0.9000E+01
       -1 -1    0    0    0  501 0.00000000E+00 0.00000000E+00 -.48538165E+01 0.48643535E+01 0.32000000E+00 0.0000E+00 0.9000E+01
       23  2    1    2    0    0 0.00000000E+00 0.00000000E+00 0.40440528E+03 0.41412358E+03 0.89189153E+02 0.0000E+00 0.0000E+00
      -11  1    3    3    0    0 0.28249261E+01 0.11525868E+02 0.26068756E+01 0.12149965E+02 0.51099893E-03 0.0000E+00 0.9000E+01
       11  1    3    3    0    0 -.28249261E+01 -.11525868E+02 0.40179841E+03 0.40197361E+03 0.51099893E-03 0.0000E+00 0.9000E+01
#aMCatNLO 1  0  0  2  1 0.94116062E+01 0.00000000E+00  9  5  0 0.00000000E+00 0.00000000E+00 0.00000000E+00 0.00000000E+00 0.00000000E+00
  <rwgt>
   <wgt id='1001'> 0.15478E+04 </wgt>
   <wgt id='1002'> 0.14629E+04 </wgt>
   <wgt id='1003'> 0.16585E+04 </wgt>
   <wgt id='1004'> 0.17456E+04 </wgt>
   <wgt id='1005'> 0.16529E+04 </wgt>
   <wgt id='1006'> 0.18659E+04 </wgt>
   <wgt id='1007'> 0.13068E+04 </wgt>
   <wgt id='1008'> 0.12325E+04 </wgt>
   <wgt id='1009'> 0.14040E+04 </wgt>
  </rwgt>
  </event>
  <event>
  5      0 0.15478455E+04 0.30000000E+02 0.75467711E-02 0.15725648E+00
        1 -1    0    0  501    0 0.00000000E+00 0.00000000E+00 0.12054605E+03 0.12054647E+03 0.32000000E+00 0.0000E+00 0.9000E+01
       -1 -1    0    0    0  501 0.00000000E+00 0.00000000E+00 -.16928901E+02 0.16931925E+02 0.32000000E+00 0.0000E+00 0.9000E+01
       23  2    1    2    0    0 0.00000000E+00 0.00000000E+00 0.10361715E+03 0.13747840E+03 0.90353731E+02 0.0000E+00 0.0000E+00
      -11  1    3    3    0    0 0.11140477E+02 -.72551101E+01 0.11750396E+03 0.11825366E+03 0.51099893E-03 0.0000E+00 0.9000E+01
       11  1    3    3    0    0 -.11140477E+02 0.72551101E+01 -.13886816E+02 0.19224737E+02 0.51099893E-03 0.0000E+00 0.9000E+01
#aMCatNLO 1  0  0  2  1 0.85202587E+01 0.00000000E+00  9  5  0 0.00000000E+00 0.00000000E+00 0.00000000E+00 0.00000000E+00 0.00000000E+00
  <rwgt>
   <wgt id='1001'> 0.15478E+04 </wgt>
   <wgt id='1002'> 0.16792E+04 </wgt>
   <wgt id='1003'> 0.13681E+04 </wgt>
   <wgt id='1004'> 0.17735E+04 </wgt>
   <wgt id='1005'> 0.19312E+04 </wgt>
   <wgt id='1006'> 0.15577E+04 </wgt>
   <wgt id='1007'> 0.12759E+04 </wgt>
   <wgt id='1008'> 0.13792E+04 </wgt>
   <wgt id='1009'> 0.11346E+04 </wgt>
  </rwgt>
  </event>
  <event>
  5      0 0.15478455E+04 0.30000000E+02 0.75467711E-02 0.12891248E+00
        2 -1    0    0  501    0 0.00000000E+00 0.00000000E+00 0.90047156E+02 0.90047724E+02 0.32000000E+00 0.0000E+00 0.9000E+01
       -2 -1    0    0    0  501 0.00000000E+00 0.00000000E+00 -.23643112E+02 0.23645278E+02 0.32000000E+00 0.0000E+00 0.9000E+01
       23  2    1    2    0    0 0.00000000E+00 0.00000000E+00 0.66404043E+02 0.11369300E+03 0.92285436E+02 0.0000E+00 0.0000E+00
      -11  1    3    3    0    0 -.53247746E+00 -.69380758E+01 -.22994370E+02 0.24024185E+02 0.51099893E-03 0.0000E+00 0.9000E+01
       11  1    3    3    0    0 0.53247746E+00 0.69380758E+01 0.89398413E+02 0.89668817E+02 0.51099893E-03 0.0000E+00 0.9000E+01
#aMCatNLO 1  0  0  2  1 0.51582979E+02 0.00000000E+00  9  5  0 0.00000000E+00 0.00000000E+00 0.00000000E+00 0.00000000E+00 0.00000000E+00
  <rwgt>
   <wgt id='1001'> 0.15479E+04 </wgt>
   <wgt id='1002'> 0.14643E+04 </wgt>
   <wgt id='1003'> 0.16748E+04 </wgt>
   <wgt id='1004'> 0.18742E+04 </wgt>
   <wgt id='1005'> 0.17746E+04 </wgt>
   <wgt id='1006'> 0.20257E+04 </wgt>
   <wgt id='1007'> 0.11719E+04 </wgt>
   <wgt id='1008'> 0.11079E+04 </wgt>
   <wgt id='1009'> 0.12695E+04 </wgt>
  </rwgt>
  </event>
  <event>
  6      0 0.15478455E+04 0.44824997E+02 0.75467711E-02 0.12469451E+00
        2 -1    0    0  502    0 0.00000000E+00 0.00000000E+00 0.60308327E+02 0.60309176E+02 0.32000000E+00 0.0000E+00 0.9000E+01
       -2 -1    0    0    0  501 0.00000000E+00 0.00000000E+00 -.68731473E+02 0.68732218E+02 0.32000000E+00 0.0000E+00 0.9000E+01
       23  2    1    2    0    0 -.32252514E+02 0.36447184E+01 0.59151077E+00 0.95346659E+02 0.89650025E+02 0.0000E+00 0.0000E+00
      -11  1    3    3    0    0 -.55266136E+02 -.23241432E+02 0.33521929E+00 0.59955169E+02 0.51099893E-03 0.0000E+00 0.9000E+01
       11  1    3    3    0    0 0.23013622E+02 0.26886150E+02 0.25629148E+00 0.35391490E+02 0.51099893E-03 0.0000E+00 0.9000E+01
       21  1    1    2  502  501 0.32252514E+02 -.36447184E+01 -.90146571E+01 0.33694735E+02 0.75000000E+00 0.0000E+00 0.9000E+01
#aMCatNLO 2  0  0  1  1 0.32457797E+02 0.00000000E+00  9  5  0 0.00000000E+00 0.00000000E+00 0.00000000E+00 0.00000000E+00 0.00000000E+00
  <rwgt>
   <wgt id='1001'> 0.15479E+04 </wgt>
   <wgt id='1002'> 0.13939E+04 </wgt>
   <wgt id='1003'> 0.17412E+04 </wgt>
   <wgt id='1004'> 0.16470E+04 </wgt>
   <wgt id='1005'> 0.14832E+04 </wgt>
   <wgt id='1006'> 0.18528E+04 </wgt>
   <wgt id='1007'> 0.14272E+04 </wgt>
   <wgt id='1008'> 0.12852E+04 </wgt>
   <wgt id='1009'> 0.16054E+04 </wgt>
  </rwgt>
  </event>
  <event>
  5      0 0.15478455E+04 0.23420029E+02 0.75467711E-02 0.14016637E+00
       -2 -1    0    0    0  501 0.00000000E+00 0.00000000E+00 0.56485542E+02 0.56486448E+02 0.32000000E+00 0.0000E+00 0.9000E+01
        2 -1    0    0  501    0 0.00000000E+00 0.00000000E+00 -.38559505E+02 0.38560832E+02 0.32000000E+00 0.0000E+00 0.9000E+01
       23  2    1    2    0    0 0.00000000E+00 0.00000000E+00 0.17926037E+02 0.95047280E+02 0.93341538E+02 0.0000E+00 0.0000E+00
      -11  1    3    3    0    0 0.28217093E+02 0.77286646E+01 -.28063875E+02 0.40540321E+02 0.51099893E-03 0.0000E+00 0.9000E+01
       11  1    3    3    0    0 -.28217093E+02 -.77286646E+01 0.45989912E+02 0.54506959E+02 0.51099893E-03 0.0000E+00 0.9000E+01
#aMCatNLO 1  0  0  1  2 0.55358892E+01 0.00000000E+00  9  5  0 0.00000000E+00 0.00000000E+00 0.00000000E+00 0.00000000E+00 0.00000000E+00
  <rwgt>
   <wgt id='1001'> 0.15479E+04 </wgt>
   <wgt id='1002'> 0.15380E+04 </wgt>
   <wgt id='1003'> 0.15574E+04 </wgt>
   <wgt id='1004'> 0.15619E+04 </wgt>
   <wgt id='1005'> 0.15690E+04 </wgt>
   <wgt id='1006'> 0.15489E+04 </wgt>
   <wgt id='1007'> 0.15391E+04 </wgt>
   <wgt id='1008'> 0.15086E+04 </wgt>
   <wgt id='1009'> 0.15759E+04 </wgt>
  </rwgt>
  </event>
  <event>
  5      0 0.15478455E+04 0.45052352E+02 0.75467711E-02 0.12594262E+00
        2 -1    0    0  501    0 0.00000000E+00 0.00000000E+00 0.72716113E+03 0.72716120E+03 0.32000000E+00 0.0000E+00 0.9000E+01
       -2 -1    0    0    0  501 0.00000000E+00 0.00000000E+00 -.29051214E+01 0.29226923E+01 0.32000000E+00 0.0000E+00 0.9000E+01
       23  2    1    2    0    0 0.00000000E+00 0.00000000E+00 0.72425601E+03 0.73008389E+03 0.92063698E+02 0.0000E+00 0.0000E+00
      -11  1    3    3    0    0 0.33516175E+02 -.30106152E+02 0.28722358E+03 0.29073545E+03 0.51099893E-03 0.0000E+00 0.9000E+01
       11  1    3    3    0    0 -.33516175E+02 0.30106152E+02 0.43703243E+03 0.43934844E+03 0.51099893E-03 0.0000E+00 0.9000E+01
#aMCatNLO 1  0  0  1  1 0.26266509E+02 0.00000000E+00  9  5  0 0.00000000E+00 0.00000000E+00 0.00000000E+00 0.00000000E+00 0.00000000E+00
  <rwgt>
   <wgt id='1001'> 0.15479E+04 </wgt>
   <wgt id='1002'> 0.15492E+04 </wgt>
   <wgt id='1003'> 0.15462E+04 </wgt>
   <wgt id='1004'> 0.16739E+04 </wgt>
   <wgt id='1005'> 0.16769E+04 </wgt>
   <wgt id='1006'> 0.16701E+04 </wgt>
   <wgt id='1007'> 0.13961E+04 </wgt>
   <wgt id='1008'> 0.13960E+04 </wgt>
   <wgt id='1009'> 0.13963E+04 </wgt>
  </rwgt>
  </event>
  <event>
  6      0 0.15478455E+04 0.39743128E+02 0.75467711E-02 0.12366558E+00
       21 -1    0    0  501  502 0.00000000E+00 0.00000000E+00 0.36497447E+03 0.36497524E+03 0.75000000E+00 0.0000E+00 0.9000E+01
       -2 -1    0    0    0  501 0.00000000E+00 0.00000000E+00 -.45910439E+02 0.45911554E+02 0.32000000E+00 0.0000E+00 0.9000E+01
       23  2    1    2    0    0 -.15488812E+01 0.43999359E+02 0.11666140E+02 0.10035192E+03 0.89420725E+02 0.0000E+00 0.0000E+00
      -11  1    3    3    0    0 -.36980873E+02 0.40294090E+01 0.25591943E+02 0.45152726E+02 0.51099893E-03 0.0000E+00 0.9000E+01
       11  1    3    3    0    0 0.35431991E+02 0.39969950E+02 -.13925803E+02 0.55199193E+02 0.51099893E-03 0.0000E+00 0.9000E+01
       -2  1    1    2    0  502 0.15488812E+01 -.43999359E+02 0.30739789E+03 0.31053488E+03 0.32000000E+00 0.0000E+00 0.9000E+01
#aMCatNLO 2  0  0  1  1 0.44026613E+02 0.00000000E+00  9  5  0 0.00000000E+00 0.00000000E+00 0.00000000E+00 0.00000000E+00 0.00000000E+00
  <rwgt>
   <wgt id='1001'> 0.15479E+04 </wgt>
   <wgt id='1002'> 0.13951E+04 </wgt>
   <wgt id='1003'> 0.17393E+04 </wgt>
   <wgt id='1004'> 0.14938E+04 </wgt>
   <wgt id='1005'> 0.13463E+04 </wgt>
   <wgt id='1006'> 0.16786E+04 </wgt>
   <wgt id='1007'> 0.15979E+04 </wgt>
   <wgt id='1008'> 0.14403E+04 </wgt>
   <wgt id='1009'> 0.17956E+04 </wgt>
  </rwgt>
  </event>
  <event>
  6      0 0.15478455E+04 0.32044651E+02 0.75467711E-02 0.11394648E+00
       21 -1    0    0  502  501 0.00000000E+00 0.00000000E+00 0.40349951E+03 0.40350021E+03 0.75000000E+00 0.0000E+00 0.9000E+01
        3 -1    0    0  501    0 0.00000000E+00 0.00000000E+00 -.40523263E+02 0.40526347E+02 0.50000000E+00 0.0000E+00 0.9000E+01
       23  2    1    2    0    0 0.75631440E+02 -.75260165E+02 0.15055461E+03 0.20631369E+03 0.92273714E+02 0.0000E+00 0.0000E+00
      -11  1    3    3    0    0 0.66483214E+02 -.21738817E+02 0.13117941E+03 0.14866281E+03 0.51099893E-03 0.0000E+00 0.9000E+01
       11  1    3    3    0    0 0.91482263E+01 -.53521348E+02 0.19375201E+02 0.57650873E+02 0.51099893E-03 0.0000E+00 0.9000E+01
        3  1    1    2  502    0 -.75631440E+02 0.75260165E+02 0.21242164E+03 0.23771287E+03 0.50000000E+00 0.0000E+00 0.9000E+01
#aMCatNLO 2  0  0  1  2 0.10669680E+03 0.00000000E+00  9  5  0 0.00000000E+00 0.00000000E+00 0.00000000E+00 0.00000000E+00 0.00000000E+00
  <rwgt>
   <wgt id='1001'> 0.15479E+04 </wgt>
   <wgt id='1002'> 0.14116E+04 </wgt>
   <wgt id='1003'> 0.17218E+04 </wgt>
   <wgt id='1004'> 0.15031E+04 </wgt>
   <wgt id='1005'> 0.13708E+04 </wgt>
   <wgt id='1006'> 0.16720E+04 </wgt>
   <wgt id='1007'> 0.15873E+04 </wgt>
   <wgt id='1008'> 0.14476E+04 </wgt>
   <wgt id='1009'> 0.17657E+04 </wgt>
  </rwgt>
  </event>
  <event>
  5      0 0.15478455E+04 0.22848332E+02 0.75467711E-02 0.13422240E+00
       -1 -1    0    0    0  501 0.00000000E+00 0.00000000E+00 0.31392045E+01 0.31554722E+01 0.32000000E+00 0.0000E+00 0.9000E+01
        1 -1    0    0  501    0 0.00000000E+00 0.00000000E+00 -.65444545E+03 0.65444553E+03 0.32000000E+00 0.0000E+00 0.9000E+01
       23  2    1    2    0    0 0.00000000E+00 0.00000000E+00 -.65130624E+03 0.65760100E+03 0.90770317E+02 0.0000E+00 0.0000E+00
      -11  1    3    3    0    0 0.76032194E+01 0.40299387E+02 -.18480751E+03 0.18930311E+03 0.51099893E-03 0.0000E+00 0.9000E+01
       11  1    3    3    0    0 -.76032194E+01 -.40299387E+02 -.46649873E+03 0.46829789E+03 0.51099893E-03 0.0000E+00 0.9000E+01
#aMCatNLO 1  0  0  1  2 0.10669680E+03 0.00000000E+00  9  5  0 0.00000000E+00 0.00000000E+00 0.00000000E+00 0.00000000E+00 0.00000000E+00
  <rwgt>
   <wgt id='1001'> 0.15479E+04 </wgt>
   <wgt id='1002'> 0.13829E+04 </wgt>
   <wgt id='1003'> 0.17590E+04 </wgt>
   <wgt id='1004'> 0.16786E+04 </wgt>
   <wgt id='1005'> 0.14997E+04 </wgt>
   <wgt id='1006'> 0.19075E+04 </wgt>
   <wgt id='1007'> 0.13929E+04 </wgt>
   <wgt id='1008'> 0.12444E+04 </wgt>
   <wgt id='1009'> 0.15829E+04 </wgt>
  </rwgt>
  </event>
  <event>
  6      0 0.15478455E+04 0.42999656E+02 0.75467711E-02 0.12650828E+00
       21 -1    0    0  501  502 0.00000000E+00 0.00000000E+00 0.19587365E+02 0.19601719E+02 0.75000000E+00 0.0000E+00 0.9000E+01
       -1 -1    0    0    0  501 0.00000000E+00 0.00000000E+00 -.18071153E+03 0.18071181E+03 0.32000000E+00 0.0000E+00 0.9000E+01
       23  2    1    2    0    0 -.26633097E+02 0.30764359E+01 -.13335527E+03 0.16171301E+03 0.87456752E+02 0.0000E+00 0.0000E+00
      -11  1    3    3    0    0 -.46703570E+02 -.26941026E+02 -.65398516E+02 0.84758529E+02 0.51099893E-03 0.0000E+00 0.9000E+01
       11  1    3    3    0    0 0.20070473E+02 0.30017462E+02 -.67956753E+02 0.76954481E+02 0.51099893E-03 0.0000E+00 0.9000E+01
       -1  1    1    2    0  502 0.26633097E+02 -.30764359E+01 -.27768894E+02 0.38600520E+02 0.32000000E+00 0.0000E+00 0.9000E+01
#aMCatNLO 2  0  0  1  2 0.26810190E+02 0.00000000E+00  9  5  0 0.00000000E+00 0.00000000E+00 0.00000000E+00 0.00000000E+00 0.00000000E+00
  <rwgt>
   <wgt id='1001'> 0.15478E+04 </wgt>
   <wgt id='1002'> 0.13918E+04 </wgt>
   <wgt id='1003'> 0.17446E+04 </wgt>
   <wgt id='1004'> 0.16317E+04 </wgt>
   <wgt id='1005'> 0.14672E+04 </wgt>
   <wgt id='1006'> 0.18392E+04 </wgt>
   <wgt id='1007'> 0.14313E+04 </wgt>
   <wgt id='1008'> 0.12870E+04 </wgt>
   <wgt id='1009'> 0.16132E+04 </wgt>
  </rwgt>
  </event>
  <event>
  5      0 0.15478455E+04 0.14919962E+02 0.75467711E-02 0.13383776E+00
       -1 -1    0    0    0  501 0.00000000E+00 0.00000000E+00 0.39827920E+01 0.39956266E+01 0.32000000E+00 0.0000E+00 0.9000E+01
        1 -1    0    0  501    0 0.00000000E+00 0.00000000E+00 -.51074596E+03 0.51074606E+03 0.32000000E+00 0.0000E+00 0.9000E+01
       23  2    1    2    0    0 0.00000000E+00 0.00000000E+00 -.50676317E+03 0.51474169E+03 0.90277881E+02 0.0000E+00 0.0000E+00
      -11  1    3    3    0    0 -.28748616E+02 -.62345780E+01 -.58170944E+02 0.65185977E+02 0.51099893E-03 0.0000E+00 0.9000E+01
       11  1    3    3    0    0 0.28748616E+02 0.62345780E+01 -.44859223E+03 0.44955571E+03 0.51099893E-03 0.0000E+00 0.9000E+01
#aMCatNLO 1  0  0  1  2 0.20959908E+02 0.00000000E+00  9  5  0 0.00000000E+00 0.00000000E+00 0.00000000E+00 0.00000000E+00 0.00000000E+00
  <rwgt>
   <wgt id='1001'> 0.15479E+04 </wgt>
   <wgt id='1002'> 0.16325E+04 </wgt>
   <wgt id='1003'> 0.14345E+04 </wgt>
   <wgt id='1004'> 0.14032E+04 </wgt>
   <wgt id='1005'> 0.15306E+04 </wgt>
   <wgt id='1006'> 0.12341E+04 </wgt>
   <wgt id='1007'> 0.16574E+04 </wgt>
   <wgt id='1008'> 0.16988E+04 </wgt>
   <wgt id='1009'> 0.16005E+04 </wgt>
  </rwgt>
  </event>
  <event>
  6      0 0.15478455E+04 0.34210762E+02 0.75467711E-02 0.11479635E+00
       21 -1    0    0  502  501 0.00000000E+00 0.00000000E+00 0.20435325E+02 0.20449083E+02 0.75000000E+00 0.0000E+00 0.9000E+01
        1 -1    0    0  501    0 0.00000000E+00 0.00000000E+00 -.94399156E+03 0.94399162E+03 0.32000000E+00 0.0000E+00 0.9000E+01
       23  2    1    2    0    0 0.94472038E+02 -.43303501E+02 -.27774674E+03 0.31032284E+03 0.91415847E+02 0.0000E+00 0.0000E+00
      -11  1    3    3    0    0 0.95821685E+02 -.27493714E+02 -.14112627E+03 0.17278404E+03 0.51099893E-03 0.0000E+00 0.9000E+01
       11  1    3    3    0    0 -.13496467E+01 -.15809787E+02 -.13662046E+03 0.13753880E+03 0.51099893E-03 0.0000E+00 0.9000E+01
        1  1    1    2  502    0 -.94472038E+02 0.43303501E+02 -.64580950E+03 0.65411786E+03 0.32000000E+00 0.0000E+00 0.9000E+01
#aMCatNLO 2  0  0  1  2 0.10392381E+03 0.00000000E+00  9  5  0 0.00000000E+00 0.00000000E+00 0.00000000E+00 0.00000000E+00 0.00000000E+00
  <rwgt>
   <wgt id='1001'> 0.15479E+04 </wgt>
   <wgt id='1002'> 0.14097E+04 </wgt>
   <wgt id='1003'> 0.17233E+04 </wgt>
   <wgt id='1004'> 0.15157E+04 </wgt>
   <wgt id='1005'> 0.13804E+04 </wgt>
   <wgt id='1006'> 0.16875E+04 </wgt>
   <wgt id='1007'> 0.15674E+04 </wgt>
   <wgt id='1008'> 0.14275E+04 </wgt>
   <wgt id='1009'> 0.17450E+04 </wgt>
  </rwgt>
  </event>
  <event>
  4      0 0.15478455E+04 0.30000000E+02 0.75467711E-02 0.17240417E+00
       -2 -1    0    0    0  501 0.00000000E+00 0.00000000E+00 0.16051104E+00 0.35799971E+00 0.32000000E+00 0.0000E+00 0.9000E+01
        2 -1    0    0  501    0 0.00000000E+00 0.00000000E+00 -.12451031E+04 0.12451032E+04 0.32000000E+00 0.0000E+00 0.9000E+01
      -11  1    1    2    0    0 0.37281550E+01 0.10054777E+02 -.11221347E+04 0.11221860E+04 0.51099893E-03 0.0000E+00 0.9000E+01
       11  1    1    2    0    0 -.37281550E+01 -.10054777E+02 -.12280788E+03 0.12327519E+03 0.51099893E-03 0.0000E+00 0.9000E+01
#aMCatNLO 1  0  0  1  1 0.14472343E+01 0.00000000E+00  9  5  0 0.00000000E+00 0.00000000E+00 0.00000000E+00 0.00000000E+00 0.00000000E+00
  <rwgt>
   <wgt id='1001'> 0.15479E+04 </wgt>
   <wgt id='1002'> 0.15072E+04 </wgt>
   <wgt id='1003'> 0.16041E+04 </wgt>
   <wgt id='1004'> 0.18557E+04 </wgt>
   <wgt id='1005'> 0.18079E+04 </wgt>
   <wgt id='1006'> 0.19216E+04 </wgt>
   <wgt id='1007'> 0.12027E+04 </wgt>
   <wgt id='1008'> 0.11720E+04 </wgt>
   <wgt id='1009'> 0.12454E+04 </wgt>
  </rwgt>
  </event>
  <event>
  5      0 0.15478455E+04 0.43491026E+02 0.75467711E-02 0.13192126E+00
        3 -1    0    0  501    0 0.00000000E+00 0.00000000E+00 0.30350653E+02 0.30354771E+02 0.50000000E+00 0.0000E+00 0.9000E+01
       -3 -1    0    0    0  501 0.00000000E+00 0.00000000E+00 -.70122364E+02 0.70124147E+02 0.50000000E+00 0.0000E+00 0.9000E+01
       23  2    1    2    0    0 0.00000000E+00 0.00000000E+00 -.39771712E+02 0.10047892E+03 0.92272552E+02 0.0000E+00 0.0000E+00
      -11  1    3    3    0    0 -.27983589E+02 0.33292464E+02 -.36652876E+02 0.56876205E+02 0.51099893E-03 0.0000E+00 0.9000E+01
       11  1    3    3    0    0 0.27983589E+02 -.33292464E+02 -.31188353E+01 0.43602712E+02 0.51099893E-03 0.0000E+00 0.9000E+01
#aMCatNLO 1  0  0  2  1 0.36911534E+01 0.00000000E+00  9  5  0 0.00000000E+00 0.00000000E+00 0.00000000E+00 0.00000000E+00 0.00000000E+00
  <rwgt>
   <wgt id='1001'> 0.15478E+04 </wgt>
   <wgt id='1002'> 0.15242E+04 </wgt>
   <wgt id='1003'> 0.15776E+04 </wgt>
   <wgt id='1004'> 0.17066E+04 </wgt>
   <wgt id='1005'> 0.16843E+04 </wgt>
   <wgt id='1006'> 0.17347E+04 </wgt>
   <wgt id='1007'> 0.13548E+04 </wgt>
   <wgt id='1008'> 0.13308E+04 </wgt>
   <wgt id='1009'> 0.13851E+04 </wgt>
  </rwgt>
  </event>
  <event>
  4      0 0.15478455E+04 0.23523843E+02 0.75467711E-02 0.14532312E+00
       -2 -1    0    0    0  501 0.00000000E+00 0.00000000E+00 0.42534565E+00 0.53227711E+00 0.32000000E+00 0.0000E+00 0.9000E+01
        2 -1    0    0  501    0 0.00000000E+00 0.00000000E+00 -.16076443E+04 0.16076443E+04 0.32000000E+00 0.0000E+00 0.9000E+01
      -11  1    1    2    0    0 0.22026965E+01 0.11350901E+02 -.15345462E+04 0.15345898E+04 0.51099893E-03 0.0000E+00 0.9000E+01
       11  1    1    2    0    0 -.22026965E+01 -.11350901E+02 -.72672686E+02 0.73586780E+02 0.51099893E-03 0.0000E+00 0.9000E+01
#aMCatNLO 1  0  0  1  2 0.21595222E+02 0.00000000E+00  9  5  0 0.00000000E+00 0.00000000E+00 0.00000000E+00 0.00000000E+00 0.00000000E+00
  <rwgt>
   <wgt id='1001'> 0.15479E+04 </wgt>
   <wgt id='1002'> 0.14529E+04 </wgt>
   <wgt id='1003'> 0.16763E+04 </wgt>
   <wgt id='1004'> 0.10530E+04 </wgt>
   <wgt id='1005'> 0.10395E+04 </wgt>
   <wgt id='1006'> 0.10686E+04 </wgt>
   <wgt id='1007'> 0.17997E+04 </wgt>
   <wgt id='1008'> 0.16531E+04 </wgt>
   <wgt id='1009'> 0.19998E+04 </wgt>
  </rwgt>
  </event>
  <event>
  6      0 0.15478455E+04 0.41414106E+02 0.75467711E-02 0.12610489E+00
        2 -1    0    0  502    0 0.00000000E+00 0.00000000E+00 0.12947788E+03 0.12947828E+03 0.32000000E+00 0.0000E+00 0.9000E+01
       -2 -1    0    0    0  501 0.00000000E+00 0.00000000E+00 -.44190301E+02 0.44191460E+02 0.32000000E+00 0.0000E+00 0.9000E+01
       23  2    1    2    0    0 0.14343000E+02 -.27772941E+02 0.12142081E+02 0.94121736E+02 0.87945513E+02 0.0000E+00 0.0000E+00
      -11  1    3    3    0    0 0.25961136E+02 -.53616122E+02 0.22890061E+02 0.63817114E+02 0.51099893E-03 0.0000E+00 0.9000E+01
       11  1    3    3    0    0 -.11618136E+02 0.25843181E+02 -.10747980E+02 0.30304623E+02 0.51099893E-03 0.0000E+00 0.9000E+01
       21  1    1    2  502  501 -.14343000E+02 0.27772941E+02 0.73145499E+02 0.79548001E+02 0.75000000E+00 0.0000E+00 0.9000E+01
#aMCatNLO 2  0  0  1  2 0.31257925E+02 0.00000000E+00  9  5  0 0.00000000E+00 0.00000000E+00 0.00000000E+00 0.00000000E+00 0.00000000E+00
  <rwgt>
   <wgt id='1001'> 0.15479E+04 </wgt>
   <wgt id='1002'> 0.13922E+04 </wgt>
   <wgt id='1003'> 0.17438E+04 </wgt>
   <wgt id='1004'> 0.16364E+04 </wgt>
   <wgt id='1005'> 0.14719E+04 </wgt>
   <wgt id='1006'> 0.18436E+04 </wgt>
   <wgt id='1007'> 0.14382E+04 </wgt>
   <wgt id='1008'> 0.12935E+04 </wgt>
   <wgt id='1009'> 0.16202E+04 </wgt>
  </rwgt>
  </event>
  <event>
  5      0 0.15478455E+04 0.23818146E+02 0.75467711E-02 0.13207890E+00
        1 -1    0    0  501    0 0.00000000E+00 0.00000000E+00 0.58005958E+03 0.58005967E+03 0.32000000E+00 0.0000E+00 0.9000E+01
       -1 -1    0    0    0  501 0.00000000E+00 0.00000000E+00 -.33351431E+01 0.33504596E+01 0.32000000E+00 0.0000E+00 0.9000E+01
       23  2    1    2    0    0 0.00000000E+00 0.00000000E+00 0.57672443E+03 0.58341013E+03 0.88069866E+02 0.0000E+00 0.0000E+00
      -11  1    3    3    0    0 0.25472234E+02 -.33865736E+02 0.20904831E+03 0.21330007E+03 0.51099893E-03 0.0000E+00 0.9000E+01
       11  1    3    3    0    0 -.25472234E+02 0.33865736E+02 0.36767612E+03 0.37011005E+03 0.51099893E-03 0.0000E+00 0.9000E+01
#aMCatNLO 1  0  0  1  2 0.52030376E+01 0.00000000E+00  9  5  0 0.00000000E+00 0.00000000E+00 0.00000000E+00 0.00000000E+00 0.00000000E+00
  <rwgt>
   <wgt id='1001'> 0.15478E+04 </wgt>
   <wgt id='1002'> 0.14540E+04 </wgt>
   <wgt id='1003'> 0.16670E+04 </wgt>
   <wgt id='1004'> 0.20013E+04 </wgt>
   <wgt id='1005'> 0.18656E+04 </wgt>
   <wgt id='1006'> 0.21740E+04 </wgt>
   <wgt id='1007'> 0.11449E+04 </wgt>
   <wgt id='1008'> 0.10865E+04 </wgt>
   <wgt id='1009'> 0.12189E+04 </wgt>
  </rwgt>
  </event>
  <event>
  6      0 0.15478455E+04 0.33200239E+02 0.75467711E-02 0.12969038E+00
        1 -1    0    0  501    0 0.00000000E+00 0.00000000E+00 0.46037469E+03 0.46037480E+03 0.32000000E+00 0.0000E+00 0.9000E+01
       21 -1    0    0  502  501 0.00000000E+00 0.00000000E+00 -.15078909E+02 0.15097550E+02 0.75000000E+00 0.0000E+00 0.9000E+01
       23  2    1    2    0    0 0.21351236E+02 0.20155525E+02 0.43319753E+03 0.44371404E+03 0.91432623E+02 0.0000E+00 0.0000E+00
      -11  1    3    3    0    0 0.15279627E+02 0.43948048E+02 0.39849809E+03 0.40120521E+03 0.51099893E-03 0.0000E+00 0.9000E+01
       11  1    3    3    0    0 0.60716086E+01 -.23792523E+02 0.34699444E+02 0.42508823E+02 0.51099893E-03 0.0000E+00 0.9000E+01
        1  1    1    2  502    0 -.21351236E+02 -.20155525E+02 0.12098248E+02 0.31758313E+02 0.32000000E+00 0.0000E+00 0.9000E+01
#aMCatNLO 2  0  0  2  1 0.29361888E+02 0.00000000E+00  9  5  0 0.00000000E+00 0.00000000E+00 0.00000000E+00 0.00000000E+00 0.00000000E+00
  <rwgt>
   <wgt id='1001'> 0.15478E+04 </wgt>
   <wgt id='1002'> 0.13881E+04 </wgt>
   <wgt id='1003'> 0.17505E+04 </wgt>
   <wgt id='1004'> 0.16066E+04 </wgt>
   <wgt id='1005'> 0.14408E+04 </wgt>
   <wgt id='1006'> 0.18170E+04 </wgt>
   <wgt id='1007'> 0.14578E+04 </wgt>
   <wgt id='1008'> 0.13074E+04 </wgt>
   <wgt id='1009'> 0.16487E+04 </wgt>
  </rwgt>
  </event>
  <event>
  6      0 0.15478455E+04 0.36471641E+02 0.75467711E-02 0.12499427E+00
       -1 -1    0    0    0  501 0.00000000E+00 0.00000000E+00 0.21892232E+02 0.21894570E+02 0.32000000E+00 0.0000E+00 0.9000E+01
        1 -1    0    0  502    0 0.00000000E+00 0.00000000E+00 -.49149429E+03 0.49149439E+03 0.32000000E+00 0.0000E+00 0.9000E+01
       23  2    1    2    0    0 -.24595863E+01 -.41962661E+02 -.93533366E+02 0.13497763E+03 0.87769901E+02 0.0000E+00 0.0000E+00
      -11  1    3    3    0    0 0.31901933E+02 -.37467733E+02 -.18941763E+02 0.52729069E+02 0.51099893E-03 0.0000E+00 0.9000E+01
       11  1    3    3    0    0 -.34361519E+02 -.44949275E+01 -.74591603E+02 0.82248560E+02 0.51099893E-03 0.0000E+00 0.9000E+01
       21  1    1    2  502  501 0.24595863E+01 0.41962661E+02 -.37606869E+03 0.37841133E+03 0.75000000E+00 0.0000E+00 0.9000E+01
#aMCatNLO 2  0  0  2  2 0.42034682E+02 0.00000000E+00  9  5  0 0.00000000E+00 0.00000000E+00 0.00000000E+00 0.00000000E+00 0.00000000E+00
  <rwgt>
   <wgt id='1001'> 0.15479E+04 </wgt>
   <wgt id='1002'> 0.13935E+04 </wgt>
   <wgt id='1003'> 0.17418E+04 </wgt>
   <wgt id='1004'> 0.15970E+04 </wgt>
   <wgt id='1005'> 0.14378E+04 </wgt>
   <wgt id='1006'> 0.17971E+04 </wgt>
   <wgt id='1007'> 0.14795E+04 </wgt>
   <wgt id='1008'> 0.13320E+04 </wgt>
   <wgt id='1009'> 0.16649E+04 </wgt>
  </rwgt>
  </event>
  <event>
  5      0 0.15478455E+04 0.25104794E+02 0.75467711E-02 0.13303966E+00
        2 -1    0    0  501    0 0.00000000E+00 0.00000000E+00 0.75246441E+03 0.75246448E+03 0.32000000E+00 0.0000E+00 0.9000E+01
       -2 -1    0    0    0  501 0.00000000E+00 0.00000000E+00 -.26212621E+01 0.26407224E+01 0.32000000E+00 0.0000E+00 0.9000E+01
       23  2    1    2    0    0 0.00000000E+00 0.00000000E+00 0.74984315E+03 0.75510520E+03 0.88989422E+02 0.0000E+00 0.0000E+00
      -11  1    3    3    0    0 -.42241730E+02 0.25626275E+01 0.25831424E+03 0.26175786E+03 0.51099893E-03 0.0000E+00 0.9000E+01
       11  1    3    3    0    0 0.42241730E+02 -.25626275E+01 0.49152891E+03 0.49334734E+03 0.51099893E-03 0.0000E+00 0.9000E+01
#aMCatNLO 1  0  0  1  2 0.17014149E+01 0.00000000E+00  9  5  0 0.00000000E+00 0.00000000E+00 0.00000000E+00 0.00000000E+00 0.00000000E+00
  <rwgt>
   <wgt id='1001'> 0.15479E+04 </wgt>
   <wgt id='1002'> 0.14477E+04 </wgt>
   <wgt id='1003'> 0.16748E+04 </wgt>
   <wgt id='1004'> 0.19981E+04 </wgt>
   <wgt id='1005'> 0.18562E+04 </wgt>
   <wgt id='1006'> 0.21784E+04 </wgt>
   <wgt id='1007'> 0.11473E+04 </wgt>
   <wgt id='1008'> 0.10826E+04 </wgt>
   <wgt id='1009'> 0.12292E+04 </wgt>
  </rwgt>
  </event>
  <event>
  5      0 0.15478455E+04 0.19895210E+02 0.75467711E-02 0.15481470E+00
        1 -1    0    0  501    0 0.00000000E+00 0.00000000E+00 0.85466686E+01 0.85526571E+01 0.32000000E+00 0.0000E+00 0.9000E+01
       -1 -1    0    0    0  501 0.00000000E+00 0.00000000E+00 -.22934633E+03 0.22934655E+03 0.32000000E+00 0.0000E+00 0.9000E+01
       23  2    1    2    0    0 0.00000000E+00 0.00000000E+00 -.22079966E+03 0.23789921E+03 0.88563783E+02 0.0000E+00 0.0000E+00
      -11  1    3    3    0    0 0.36676248E+01 0.16254432E+02 -.19305422E+00 0.16664192E+02 0.51099893E-03 0.0000E+00 0.9000E+01
       11  1    3    3    0    0 -.36676248E+01 -.16254432E+02 -.22060660E+03 0.22123501E+03 0.51099893E-03 0.0000E+00 0.9000E+01
#aMCatNLO 1  0  0  1  2 0.46270015E+01 0.00000000E+00  9  5  0 0.00000000E+00 0.00000000E+00 0.00000000E+00 0.00000000E+00 0.00000000E+00
  <rwgt>
   <wgt id='1001'> 0.15478E+04 </wgt>
   <wgt id='1002'> 0.15887E+04 </wgt>
   <wgt id='1003'> 0.14737E+04 </wgt>
   <wgt id='1004'> 0.73496E+03 </wgt>
   <wgt id='1005'> 0.91018E+03 </wgt>
   <wgt id='1006'> 0.47747E+03 </wgt>
   <wgt id='1007'> 0.21188E+04 </wgt>
   <wgt id='1008'> 0.20498E+04 </wgt>
   <wgt id='1009'> 0.21955E+04 </wgt>
  </rwgt>
  </event>
  <event>
  5      0 0.15478455E+04 0.30000000E+02 0.75467711E-02 0.13760440E+00
        1 -1    0    0  501    0 0.00000000E+00 0.00000000E+00 0.19416097E+02 0.19418733E+02 0.32000000E+00 0.0000E+00 0.9000E+01
       21 -1    0    0  502  501 0.00000000E+00 0.00000000E+00 -.97820619E+02 0.97823495E+02 0.75000000E+00 0.0000E+00 0.9000E+01
      -11  1    1    2    0    0 0.20940519E+01 -.33886178E+02 -.40526067E+02 0.52867951E+02 0.51099893E-03 0.0000E+00 0.9000E+01
       11  1    1    2    0    0 0.36609601E+01 0.98830723E+00 0.72790919E+01 0.82075916E+01 0.51099893E-03 0.0000E+00 0.9000E+01
        1  1    1    2  502    0 -.57550120E+01 0.32897871E+02 -.45157547E+02 0.56166685E+02 0.32000000E+00 0.0000E+00 0.9000E+01
#aMCatNLO 2  0  0  2  1 0.33397456E+02 0.00000000E+00  9  5  0 0.00000000E+00 0.00000000E+00 0.00000000E+00 0.00000000E+00 0.00000000E+00
  <rwgt>
   <wgt id='1001'> 0.15478E+04 </wgt>
   <wgt id='1002'> 0.13790E+04 </wgt>
   <wgt id='1003'> 0.17654E+04 </wgt>
   <wgt id='1004'> 0.16615E+04 </wgt>
   <wgt id='1005'> 0.14802E+04 </wgt>
   <wgt id='1006'> 0.18950E+04 </wgt>
   <wgt id='1007'> 0.13988E+04 </wgt>
   <wgt id='1008'> 0.12463E+04 </wgt>
   <wgt id='1009'> 0.15954E+04 </wgt>
  </rwgt>
  </event>
  <event>
  6      0 0.15478455E+04 0.45862968E+02 0.75467711E-02 0.12913749E+00
       21 -1    0    0  502  501 0.00000000E+00 0.00000000E+00 0.34071690E+01 0.34887391E+01 0.75000000E+00 0.0000E+00 0.9000E+01
        2 -1    0    0  501    0 0.00000000E+00 0.00000000E+00 -.80469049E+03 0.80469055E+03 0.32000000E+00 0.0000E+00 0.9000E+01
       23  2    1    2    0    0 -.71220207E+01 0.80026203E+01 -.65445596E+03 0.66096129E+03 0.91882822E+02 0.0000E+00 0.0000E+00
      -11  1    3    3    0    0 0.23207617E+02 0.41259912E+02 -.35462535E+03 0.35777104E+03 0.51099893E-03 0.0000E+00 0.9000E+01
       11  1    3    3    0    0 -.30329637E+02 -.33257292E+02 -.29983061E+03 0.30319025E+03 0.51099893E-03 0.0000E+00 0.9000E+01
        2  1    1    2  502    0 0.71220207E+01 -.80026203E+01 -.14682736E+03 0.14721801E+03 0.32000000E+00 0.0000E+00 0.9000E+01
#aMCatNLO 2  0  0  1  1 0.10712848E+02 0.00000000E+00  9  5  0 0.00000000E+00 0.00000000E+00 0.00000000E+00 0.00000000E+00 0.00000000E+00
  <rwgt>
   <wgt id='1001'> 0.15479E+04 </wgt>
   <wgt id='1002'> 0.13888E+04 </wgt>
   <wgt id='1003'> 0.17494E+04 </wgt>
   <wgt id='1004'> 0.16678E+04 </wgt>
   <wgt id='1005'> 0.14963E+04 </wgt>
   <wgt id='1006'> 0.18850E+04 </wgt>
   <wgt id='1007'> 0.13927E+04 </wgt>
   <wgt id='1008'> 0.12495E+04 </wgt>
   <wgt id='1009'> 0.15740E+04 </wgt>
  </rwgt>
  </event>
  <event>
  5      0 0.15478455E+04 0.24087994E+02 0.75467711E-02 0.13887542E+00
       -1 -1    0    0    0  501 0.00000000E+00 0.00000000E+00 0.44594008E+01 0.44708674E+01 0.32000000E+00 0.0000E+00 0.9000E+01
        1 -1    0    0  501    0 0.00000000E+00 0.00000000E+00 -.42666169E+03 0.42666181E+03 0.32000000E+00 0.0000E+00 0.9000E+01
       23  2    1    2    0    0 0.00000000E+00 0.00000000E+00 -.42220229E+03 0.43113267E+03 0.87296119E+02 0.0000E+00 0.0000E+00
      -11  1    3    3    0    0 0.23928069E+02 0.14032378E+02 -.37753684E+03 0.37855452E+03 0.51099893E-03 0.0000E+00 0.9000E+01
       11  1    3    3    0    0 -.23928069E+02 -.14032378E+02 -.44665450E+02 0.52578157E+02 0.51099893E-03 0.0000E+00 0.9000E+01
#aMCatNLO 1  0  0  2  1 0.11336443E+02 0.00000000E+00  9  5  0 0.00000000E+00 0.00000000E+00 0.00000000E+00 0.00000000E+00 0.00000000E+00
  <rwgt>
   <wgt id='1001'> 0.15479E+04 </wgt>
   <wgt id='1002'> 0.15088E+04 </wgt>
   <wgt id='1003'> 0.15955E+04 </wgt>
   <wgt id='1004'> 0.21839E+04 </wgt>
   <wgt id='1005'> 0.20875E+04 </wgt>
   <wgt id='1006'> 0.23061E+04 </wgt>
   <wgt id='1007'> 0.10291E+04 </wgt>
   <wgt id='1008'> 0.10317E+04 </wgt>
   <wgt id='1009'> 0.10227E+04 </wgt>
  </rwgt>
  </event>
  <event>
  5      0 0.15478455E+04 0.27332028E+02 0.75467711E-02 0.12970269E+00
        2 -1    0    0  501    0 0.00000000E+00 0.00000000E+00 0.82860308E+03 0.82860314E+03 0.32000000E+00 0.0000E+00 0.9000E+01
       -2 -1    0    0    0  501 0.00000000E+00 0.00000000E+00 -.25867380E+01 0.26064561E+01 0.32000000E+00 0.0000E+00 0.9000E+01
       23  2    1    2    0    0 0.00000000E+00 0.00000000E+00 0.82601634E+03 0.83120960E+03 0.92770676E+02 0.0000E+00 0.0000E+00
      -11  1    3    3    0    0 -.26571043E+02 -.36489184E+02 0.50872280E+03 0.51072142E+03 0.51099893E-03 0.0000E+00 0.9000E+01
       11  1    3    3    0    0 0.26571043E+02 0.36489184E+02 0.31729354E+03 0.32048818E+03 0.51099893E-03 0.0000E+00 0.9000E+01
#aMCatNLO 1  0  0  2  1 0.96189193E+01 0.00000000E+00  9  5  0 0.00000000E+00 0.00000000E+00 0.00000000E+00 0.00000000E+00 0.00000000E+00
  <rwgt>
   <wgt id='1001'> 0.15479E+04 </wgt>
   <wgt id='1002'> 0.15280E+04 </wgt>
   <wgt id='1003'> 0.15698E+04 </wgt>
   <wgt id='1004'> 0.13903E+04 </wgt>
   <wgt id='1005'> 0.13993E+04 </wgt>
   <wgt id='1006'> 0.13753E+04 </wgt>
   <wgt id='1007'> 0.16572E+04 </wgt>
   <wgt id='1008'> 0.16114E+04 </wgt>
   <wgt id='1009'> 0.17125E+04 </wgt>
  </rwgt>
  </event>
  <event>
  5      0 0.15478455E+04 0.30000000E+02 0.75467711E-02 0.12353823E+00
        1 -1    0    0  501    0 0.00000000E+00 0.00000000E+00 0.38572325E+01 0.38704835E+01 0.32000000E+00 0.0000E+00 0.9000E+01
       -1 -1    0    0    0  501 0.00000000E+00 0.00000000E+00 -.53705700E+03 0.53705709E+03 0.32000000E+00 0.0000E+00 0.9000E+01
       23  2    1    2    0    0 0.00000000E+00 0.00000000E+00 -.53319977E+03 0.54092758E+03 0.91107922E+02 0.0000E+00 0.0000E+00
      -11  1    3    3    0    0 -.88607822E+01 -.42488209E+00 -.53188587E+03 0.53195984E+03 0.51099893E-03 0.0000E+00 0.9000E+01
       11  1    3    3    0    0 0.88607822E+01 0.42488209E+00 -.13138973E+01 0.89677373E+01 0.51099893E-03 0.0000E+00 0.9000E+01
#aMCatNLO 1  0  0  2  1 0.67409501E+02 0.00000000E+00  9  5  0 0.00000000E+00 0.00000000E+00 0.00000000E+00 0.00000000E+00 0.00000000E+00
  <rwgt>
   <wgt id='1001'> 0.15478E+04 </wgt>
   <wgt id='1002'> 0.14878E+04 </wgt>
   <wgt id='1003'> 0.16330E+04 </wgt>
   <wgt id='1004'> 0.17745E+04 </wgt>
   <wgt id='1005'> 0.17072E+04 </wgt>
   <wgt id='1006'> 0.18698E+04 </wgt>
   <wgt id='1007'> 0.12702E+04 </wgt>
   <wgt id='1008'> 0.12197E+04 </wgt>
   <wgt id='1009'> 0.13417E+04 </wgt>
  </rwgt>
  </event>
  <event>
  5      0 0.15478455E+04 0.27426100E+02 0.75467711E-02 0.15158746E+00
        1 -1    0    0  501    0 0.00000000E+00 0.00000000E+00 0.13213707E+04 0.13213707E+04 0.32000000E+00 0.0000E+00 0.9000E+01
       -1 -1    0    0    0  501 0.00000000E+00 0.00000000E+00 -.14996343E+01 0.15333959E+01 0.32000000E+00 0.0000E+00 0.9000E+01
       23  2    1    2    0    0 0.00000000E+00 0.00000000E+00 0.13198711E+04 0.13229041E+04 0.89530549E+02 0.0000E+00 0.0000E+00
      -11  1    3    3    0    0 0.17204413E+02 0.12208833E+02 0.76539057E+02 0.79393165E+02 0.51099893E-03 0.0000E+00 0.9000E+01
       11  1    3    3    0    0 -.17204413E+02 -.12208833E+02 0.12433320E+04 0.12435110E+04 0.51099893E-03 0.0000E+00 0.9000E+01
#aMCatNLO 1  0  0  1  1 0.13184876E+00 0.00000000E+00  9  5  0 0.00000000E+00 0.00000000E+00 0.00000000E+00 0.00000000E+00 0.00000000E+00
  <rwgt>
   <wgt id='1001'> 0.15478E+04 </wgt>
   <wgt id='1002'> 0.13952E+04 </wgt>
   <wgt id='1003'> 0.17491E+04 </wgt>
   <wgt id='1004'> 0.19209E+04 </wgt>
   <wgt id='1005'> 0.17262E+04 </wgt>
   <wgt id='1006'> 0.21777E+04 </wgt>
   <wgt id='1007'> 0.11912E+04 </wgt>
   <wgt id='1008'> 0.10779E+04 </wgt>
   <wgt id='1009'> 0.13402E+04 </wgt>
  </rwgt>
  </event>
  <event>
  4      0 0.15478455E+04 0.30000000E+02 0.75467711E-02 0.15406939E+00
        4 -1    0    0  501    0 0.00000000E+00 0.00000000E+00 0.61876360E+01 0.63788196E+01 0.15500000E+01 0.0000E+00 0.9000E+01
       -4 -1    0    0    0  501 0.00000000E+00 0.00000000E+00 -.42579357E+02 0.42607559E+02 0.15500000E+01 0.0000E+00 0.9000E+01
      -11  1    1    2    0    0 0.16304767E+02 -.17215269E+01 -.17995965E+02 0.24344688E+02 0.51099893E-03 0.0000E+00 0.9000E+01
       11  1    1    2    0    0 -.16304767E+02 0.17215269E+01 -.18395756E+02 0.24641691E+02 0.51099893E-03 0.0000E+00 0.9000E+01
#aMCatNLO 1  0  0  2  2 0.57063719E+01 0.00000000E+00  9  5  0 0.00000000E+00 0.00000000E+00 0.00000000E+00 0.00000000E+00 0.00000000E+00
  <rwgt>
   <wgt id='1001'> 0.15478E+04 </wgt>
   <wgt id='1002'> 0.15269E+04 </wgt>
   <wgt id='1003'> 0.15755E+04 </wgt>
   <wgt id='1004'> 0.21833E+04 </wgt>
   <wgt id='1005'> 0.21615E+04 </wgt>
   <wgt id='1006'> 0.22119E+04 </wgt>
   <wgt id='1007'> 0.94078E+03 </wgt>
   <wgt id='1008'> 0.92337E+03 </wgt>
   <wgt id='1009'> 0.96388E+03 </wgt>
  </rwgt>
  </event>
  <event>
  5      0 -.15478455E+04 0.30000000E+02 0.75467711E-02 0.13086514E+00
       -2 -1    0    0    0  501 0.00000000E+00 0.00000000E+00 0.41938293E+01 0.42060200E+01 0.32000000E+00 0.0000E+00 0.9000E+01
        2 -1    0    0  501    0 0.00000000E+00 0.00000000E+00 -.56428112E+03 0.56428121E+03 0.32000000E+00 0.0000E+00 0.9000E+01
       23  2    1    2    0    0 0.00000000E+00 0.00000000E+00 -.56008729E+03 0.56848723E+03 0.97365077E+02 0.0000E+00 0.0000E+00
      -11  1    3    3    0    0 0.23856488E+02 0.75962414E+01 -.36270722E+02 0.44072669E+02 0.51099893E-03 0.0000E+00 0.9000E+01
       11  1    3    3    0    0 -.23856488E+02 -.75962414E+01 -.52381657E+03 0.52441456E+03 0.51099893E-03 0.0000E+00 0.9000E+01
#aMCatNLO 1  0  0  1  1 0.40296238E+02 0.00000000E+00  9  5  0 0.00000000E+00 0.00000000E+00 0.00000000E+00 0.00000000E+00 0.00000000E+00
  <rwgt>
   <wgt id='1001'> -.15479E+04 </wgt>
   <wgt id='1002'> -.13298E+04 </wgt>
   <wgt id='1003'> -.18340E+04 </wgt>
   <wgt id='1004'> -.16257E+04 </wgt>
   <wgt id='1005'> -.13943E+04 </wgt>
   <wgt id='1006'> -.19296E+04 </wgt>
   <wgt id='1007'> -.14425E+04 </wgt>
   <wgt id='1008'> -.12419E+04 </wgt>
   <wgt id='1009'> -.17058E+04 </wgt>
  </rwgt>
  </event>
  <event>
  5      0 0.15478455E+04 0.19592597E+02 0.75467711E-02 0.13091848E+00
        2 -1    0    0  501    0 0.00000000E+00 0.00000000E+00 0.37298976E+02 0.37300349E+02 0.32000000E+00 0.0000E+00 0.9000E+01
       -2 -1    0    0    0  501 0.00000000E+00 0.00000000E+00 -.57962513E+02 0.57963396E+02 0.32000000E+00 0.0000E+00 0.9000E+01
       23  2    1    2    0    0 0.00000000E+00 0.00000000E+00 -.20663537E+02 0.95263746E+02 0.92995696E+02 0.0000E+00 0.0000E+00
      -11  1    3    3    0    0 0.33368606E+02 -.23088825E+02 0.12926417E+02 0.42586970E+02 0.51099893E-03 0.0000E+00 0.9000E+01
       11  1    3    3    0    0 -.33368606E+02 0.23088825E+02 -.33589954E+02 0.52676776E+02 0.51099893E-03 0.0000E+00 0.9000E+01
#aMCatNLO 1  0  0  1  2 0.12998381E+02 0.00000000E+00  9  5  0 0.00000000E+00 0.00000000E+00 0.00000000E+00 0.00000000E+00 0.00000000E+00
  <rwgt>
   <wgt id='1001'> 0.15479E+04 </wgt>
   <wgt id='1002'> 0.15206E+04 </wgt>
   <wgt id='1003'> 0.15768E+04 </wgt>
   <wgt id='1004'> 0.17864E+04 </wgt>
   <wgt id='1005'> 0.17470E+04 </wgt>
   <wgt id='1006'> 0.18307E+04 </wgt>
   <wgt id='1007'> 0.13615E+04 </wgt>
   <wgt id='1008'> 0.13387E+04 </wgt>
   <wgt id='1009'> 0.13854E+04 </wgt>
  </rwgt>
  </event>
  <event>
  5      0 0.15478455E+04 0.26162458E+02 0.75467711E-02 0.13048845E+00
       -1 -1    0    0    0  501 0.00000000E+00 0.00000000E+00 0.13866101E+03 0.13866138E+03 0.32000000E+00 0.0000E+00 0.9000E+01
        1 -1    0    0  501    0 0.00000000E+00 0.00000000E+00 -.12647180E+02 0.12651228E+02 0.32000000E+00 0.0000E+00 0.9000E+01
       23  2    1    2    0    0 0.00000000E+00 0.00000000E+00 0.12601383E+03 0.15131260E+03 0.83761684E+02 0.0000E+00 0.0000E+00
      -11  1    3    3    0    0 0.36032376E+02 0.66078886E+01 0.26339281E+02 0.45119331E+02 0.51099893E-03 0.0000E+00 0.9000E+01
       11  1    3    3    0    0 -.36032376E+02 -.66078886E+01 0.99674544E+02 0.10619327E+03 0.51099893E-03 0.0000E+00 0.9000E+01
#aMCatNLO 1  0  0  1  2 0.20785595E+02 0.00000000E+00  9  5  0 0.00000000E+00 0.00000000E+00 0.00000000E+00 0.00000000E+00 0.00000000E+00
  <rwgt>
   <wgt id='1001'> 0.15479E+04 </wgt>
   <wgt id='1002'> 0.15117E+04 </wgt>
   <wgt id='1003'> 0.15933E+04 </wgt>
   <wgt id='1004'> 0.19569E+04 </wgt>
   <wgt id='1005'> 0.18913E+04 </wgt>
   <wgt id='1006'> 0.20405E+04 </wgt>
   <wgt id='1007'> 0.12155E+04 </wgt>
   <wgt id='1008'> 0.11984E+04 </wgt>
   <wgt id='1009'> 0.12367E+04 </wgt>
  </rwgt>
  </event>
  <event>
  5      0 0.15478455E+04 0.30000000E+02 0.75467711E-02 0.13661639E+00
        1 -1    0    0  501    0 0.00000000E+00 0.00000000E+00 0.12165290E+03 0.12165332E+03 0.32000000E+00 0.0000E+00 0.9000E+01
       -1 -1    0    0    0  501 0.00000000E+00 0.00000000E+00 -.19467973E+02 0.19470603E+02 0.32000000E+00 0.0000E+00 0.9000E+01
       23  2    1    2    0    0 0.00000000E+00 0.00000000E+00 0.10218493E+03 0.14112392E+03 0.97335514E+02 0.0000E+00 0.0000E+00
      -11  1    3    3    0    0 0.15049695E+02 0.16509435E+02 -.11596568E+02 0.25170125E+02 0.51099893E-03 0.0000E+00 0.9000E+01
       11  1    3    3    0    0 -.15049695E+02 -.16509435E+02 0.11378149E+03 0.11595380E+03 0.51099893E-03 0.0000E+00 0.9000E+01
#aMCatNLO 1  0  0  1  2 0.24816594E+02 0.00000000E+00  9  5  0 0.00000000E+00 0.00000000E+00 0.00000000E+00 0.00000000E+00 0.00000000E+00
  <rwgt>
   <wgt id='1001'> 0.15478E+04 </wgt>
   <wgt id='1002'> 0.16051E+04 </wgt>
   <wgt id='1003'> 0.14722E+04 </wgt>
   <wgt id='1004'> 0.17230E+04 </wgt>
   <wgt id='1005'> 0.17903E+04 </wgt>
   <wgt id='1006'> 0.16340E+04 </wgt>
   <wgt id='1007'> 0.13357E+04 </wgt>
   <wgt id='1008'> 0.13825E+04 </wgt>
   <wgt id='1009'> 0.12740E+04 </wgt>
  </rwgt>
  </event>
  <event>
  5      0 0.15478455E+04 0.30000000E+02 0.75467711E-02 0.13831405E+00
       21 -1    0    0  502  501 0.00000000E+00 0.00000000E+00 0.43900374E+01 0.44536421E+01 0.75000000E+00 0.0000E+00 0.9000E+01
        2 -1    0    0  501    0 0.00000000E+00 0.00000000E+00 -.15555759E+04 0.15555760E+04 0.32000000E+00 0.0000E+00 0.9000E+01
      -11  1    1    2    0    0 -.52026401E+01 0.27204743E+02 -.14462418E+04 0.14465070E+04 0.51099893E-03 0.0000E+00 0.9000E+01
       11  1    1    2    0    0 -.84887958E+01 0.23776577E+01 -.38708591E+02 0.39699722E+02 0.51099893E-03 0.0000E+00 0.9000E+01
        2  1    1    2  502    0 0.13691436E+02 -.29582401E+02 -.66235523E+02 0.73822901E+02 0.32000000E+00 0.0000E+00 0.9000E+01
#aMCatNLO 2  0  0  1  2 0.32597145E+02 0.00000000E+00  9  5  0 0.00000000E+00 0.00000000E+00 0.00000000E+00 0.00000000E+00 0.00000000E+00
  <rwgt>
   <wgt id='1001'> 0.15479E+04 </wgt>
   <wgt id='1002'> 0.13782E+04 </wgt>
   <wgt id='1003'> 0.17667E+04 </wgt>
   <wgt id='1004'> 0.15909E+04 </wgt>
   <wgt id='1005'> 0.14166E+04 </wgt>
   <wgt id='1006'> 0.18160E+04 </wgt>
   <wgt id='1007'> 0.14617E+04 </wgt>
   <wgt id='1008'> 0.13015E+04 </wgt>
   <wgt id='1009'> 0.16684E+04 </wgt>
  </rwgt>
  </event>
  <event>
  5      0 0.15478455E+04 0.21326565E+02 0.75467711E-02 0.12947666E+00
        2 -1    0    0  501    0 0.00000000E+00 0.00000000E+00 0.12445805E+04 0.12445805E+04 0.32000000E+00 0.0000E+00 0.9000E+01
       -2 -1    0    0    0  501 0.00000000E+00 0.00000000E+00 -.16510783E+01 0.16818025E+01 0.32000000E+00 0.0000E+00 0.9000E+01
       23  2    1    2    0    0 0.00000000E+00 0.00000000E+00 0.12429294E+04 0.12462623E+04 0.91083927E+02 0.0000E+00 0.0000E+00
      -11  1    3    3    0    0 -.37007738E+02 -.19655596E+02 0.37740992E+03 0.37972907E+03 0.51099893E-03 0.0000E+00 0.9000E+01
       11  1    3    3    0    0 0.37007738E+02 0.19655596E+02 0.86551947E+03 0.86653325E+03 0.51099893E-03 0.0000E+00 0.9000E+01
#aMCatNLO 1  0  0  1  2 0.16306581E+02 0.00000000E+00  9  5  0 0.00000000E+00 0.00000000E+00 0.00000000E+00 0.00000000E+00 0.00000000E+00
  <rwgt>
   <wgt id='1001'> 0.15479E+04 </wgt>
   <wgt id='1002'> 0.14217E+04 </wgt>
   <wgt id='1003'> 0.17091E+04 </wgt>
   <wgt id='1004'> 0.18488E+04 </wgt>
   <wgt id='1005'> 0.16933E+04 </wgt>
   <wgt id='1006'> 0.20475E+04 </wgt>
   <wgt id='1007'> 0.12520E+04 </wgt>
   <wgt id='1008'> 0.11539E+04 </wgt>
   <wgt id='1009'> 0.13773E+04 </wgt>
  </rwgt>
  </event>
  <event>
  5      0 0.15478455E+04 0.30000000E+02 0.75467711E-02 0.14363632E+00
       -1 -1    0    0    0  501 0.00000000E+00 0.00000000E+00 0.26734812E+02 0.26736727E+02 0.32000000E+00 0.0000E+00 0.9000E+01
        1 -1    0    0  502    0 0.00000000E+00 0.00000000E+00 -.40615541E+02 0.40616802E+02 0.32000000E+00 0.0000E+00 0.9000E+01
      -11  1    1    2    0    0 0.20345003E+01 0.23857421E+02 -.12724266E+02 0.27114990E+02 0.51099893E-03 0.0000E+00 0.9000E+01
       11  1    1    2    0    0 -.11128932E+02 -.73019367E+01 0.11416044E+02 0.17535606E+02 0.51099893E-03 0.0000E+00 0.9000E+01
       21  1    1    2  502  501 0.90944314E+01 -.16555484E+02 -.12572507E+02 0.22702933E+02 0.75000000E+00 0.0000E+00 0.9000E+01
#aMCatNLO 2  0  0  2  2 0.18888958E+02 0.00000000E+00  9  5  0 0.00000000E+00 0.00000000E+00 0.00000000E+00 0.00000000E+00 0.00000000E+00
  <rwgt>
   <wgt id='1001'> 0.15478E+04 </wgt>
   <wgt id='1002'> 0.13721E+04 </wgt>
   <wgt id='1003'> 0.17771E+04 </wgt>
   <wgt id='1004'> 0.17823E+04 </wgt>
   <wgt id='1005'> 0.15799E+04 </wgt>
   <wgt id='1006'> 0.20462E+04 </wgt>
   <wgt id='1007'> 0.12887E+04 </wgt>
   <wgt id='1008'> 0.11424E+04 </wgt>
   <wgt id='1009'> 0.14795E+04 </wgt>
  </rwgt>
  </event>
  <event>
  5      0 0.15478455E+04 0.23230807E+02 0.75467711E-02 0.13150120E+00
        2 -1    0    0  501    0 0.00000000E+00 0.00000000E+00 0.43078794E+02 0.43079982E+02 0.32000000E+00 0.0000E+00 0.9000E+01
       -2 -1    0    0    0  501 0.00000000E+00 0.00000000E+00 -.48897217E+02 0.48898265E+02 0.32000000E+00 0.0000E+00 0.9000E+01
       23  2    1    2    0    0 0.00000000E+00 0.00000000E+00 -.58184237E+01 0.91978247E+02 0.91794029E+02 0.0000E+00 0.0000E+00
      -11  1    3    3    0    0 0.28666919E+02 0.60445369E+01 0.32491667E+02 0.43749710E+02 0.51099893E-03 0.0000E+00 0.9000E+01
       11  1    3    3    0    0 -.28666919E+02 -.60445369E+01 -.38310091E+02 0.48228537E+02 0.51099893E-03 0.0000E+00 0.9000E+01
#aMCatNLO 1  0  0  2  1 0.27854131E+02 0.00000000E+00  9  5  0 0.00000000E+00 0.00000000E+00 0.00000000E+00 0.00000000E+00 0.00000000E+00
  <rwgt>
   <wgt id='1001'> 0.15479E+04 </wgt>
   <wgt id='1002'> 0.15787E+04 </wgt>
   <wgt id='1003'> 0.15076E+04 </wgt>
   <wgt id='1004'> 0.18741E+04 </wgt>
   <wgt id='1005'> 0.18919E+04 </wgt>
   <wgt id='1006'> 0.18509E+04 </wgt>
   <wgt id='1007'> 0.13002E+04 </wgt>
   <wgt id='1008'> 0.13317E+04 </wgt>
   <wgt id='1009'> 0.12593E+04 </wgt>
  </rwgt>
  </event>
  <event>
  4      0 0.15478455E+04 0.30000000E+02 0.75467711E-02 0.12580617E+00
        4 -1    0    0  501    0 0.00000000E+00 0.00000000E+00 0.21090066E+02 0.21146947E+02 0.15500000E+01 0.0000E+00 0.9000E+01
       -4 -1    0    0    0  501 0.00000000E+00 0.00000000E+00 -.31741212E+02 0.31779035E+02 0.15500000E+01 0.0000E+00 0.9000E+01
      -11  1    1    2    0    0 0.10704313E+00 -.24392494E+02 0.36281867E+01 0.24661082E+02 0.51099893E-03 0.0000E+00 0.9000E+01
       11  1    1    2    0    0 -.10704313E+00 0.24392494E+02 -.14279333E+02 0.28264900E+02 0.51099893E-03 0.0000E+00 0.9000E+01
#aMCatNLO 1  0  0  2  2 0.50623653E+02 0.00000000E+00  9  5  0 0.00000000E+00 0.00000000E+00 0.00000000E+00 0.00000000E+00 0.00000000E+00
  <rwgt>
   <wgt id='1001'> 0.15478E+04 </wgt>
   <wgt id='1002'> 0.15472E+04 </wgt>
   <wgt id='1003'> 0.15486E+04 </wgt>
   <wgt id='1004'> 0.20465E+04 </wgt>
   <wgt id='1005'> 0.20480E+04 </wgt>
   <wgt id='1006'> 0.20444E+04 </wgt>
   <wgt id='1007'> 0.10427E+04 </wgt>
   <wgt id='1008'> 0.10411E+04 </wgt>
   <wgt id='1009'> 0.10448E+04 </wgt>
  </rwgt>
  </event>
  <event>
  5      0 0.15478455E+04 0.38100787E+02 0.75467711E-02 0.11777925E+00
       -1 -1    0    0    0  501 0.00000000E+00 0.00000000E+00 0.87041206E+02 0.87041795E+02 0.32000000E+00 0.0000E+00 0.9000E+01
        1 -1    0    0  501    0 0.00000000E+00 0.00000000E+00 -.22885431E+02 0.22887668E+02 0.32000000E+00 0.0000E+00 0.9000E+01
       23  2    1    2    0    0 0.00000000E+00 0.00000000E+00 0.64155775E+02 0.10992946E+03 0.89266585E+02 0.0000E+00 0.0000E+00
      -11  1    3    3    0    0 0.23479977E+01 -.38028369E+02 0.34488136E+01 0.38256559E+02 0.51099893E-03 0.0000E+00 0.9000E+01
       11  1    3    3    0    0 -.23479977E+01 0.38028369E+02 0.60706962E+02 0.71672904E+02 0.51099893E-03 0.0000E+00 0.9000E+01
#aMCatNLO 1  0  0  1  2 0.81479740E+02 0.00000000E+00  9  5  0 0.00000000E+00 0.00000000E+00 0.00000000E+00 0.00000000E+00 0.00000000E+00
  <rwgt>
   <wgt id='1001'> 0.15479E+04 </wgt>
   <wgt id='1002'> 0.15244E+04 </wgt>
   <wgt id='1003'> 0.15779E+04 </wgt>
   <wgt id='1004'> 0.15012E+04 </wgt>
   <wgt id='1005'> 0.14987E+04 </wgt>
   <wgt id='1006'> 0.15045E+04 </wgt>
   <wgt id='1007'> 0.15634E+04 </wgt>
   <wgt id='1008'> 0.15198E+04 </wgt>
   <wgt id='1009'> 0.16193E+04 </wgt>
  </rwgt>
  </event>
  <event>
  5      0 0.15478455E+04 0.32048018E+02 0.75467711E-02 0.12086503E+00
        3 -1    0    0  501    0 0.00000000E+00 0.00000000E+00 0.10362590E+03 0.10362711E+03 0.50000000E+00 0.0000E+00 0.9000E+01
       -3 -1    0    0    0  501 0.00000000E+00 0.00000000E+00 -.17600770E+02 0.17607870E+02 0.50000000E+00 0.0000E+00 0.9000E+01
       23  2    1    2    0    0 0.00000000E+00 0.00000000E+00 0.86025133E+02 0.12123498E+03 0.85425971E+02 0.0000E+00 0.0000E+00
      -11  1    3    3    0    0 0.23474835E+01 0.31961927E+02 0.29392446E+01 0.32182521E+02 0.51099893E-03 0.0000E+00 0.9000E+01
       11  1    3    3    0    0 -.23474835E+01 -.31961927E+02 0.83085888E+02 0.89052458E+02 0.51099893E-03 0.0000E+00 0.9000E+01
#aMCatNLO 1  0  0  2  1 0.64783274E+02 0.00000000E+00  9  5  0 0.00000000E+00 0.00000000E+00 0.00000000E+00 0.00000000E+00 0.00000000E+00
  <rwgt>
   <wgt id='1001'> 0.15478E+04 </wgt>
   <wgt id='1002'> 0.15459E+04 </wgt>
   <wgt id='1003'> 0.15503E+04 </wgt>
   <wgt id='1004'> 0.17635E+04 </wgt>
   <wgt id='1005'> 0.17631E+04 </wgt>
   <wgt id='1006'> 0.17639E+04 </wgt>
   <wgt id='1007'> 0.12971E+04 </wgt>
   <wgt id='1008'> 0.12942E+04 </wgt>
   <wgt id='1009'> 0.13008E+04 </wgt>
  </rwgt>
  </event>
  <event>
  4      0 0.15478455E+04 0.31475234E+02 0.75467711E-02 0.11427224E+00
        2 -1    0    0  501    0 0.00000000E+00 0.00000000E+00 0.52672390E+03 0.52672400E+03 0.32000000E+00 0.0000E+00 0.9000E+01
       -2 -1    0    0    0  501 0.00000000E+00 0.00000000E+00 -.20850570E+01 0.21094697E+01 0.32000000E+00 0.0000E+00 0.9000E+01
      -11  1    1    2    0    0 0.24572414E+02 -.19669439E+02 0.34727439E+03 0.34869786E+03 0.51099893E-03 0.0000E+00 0.9000E+01
       11  1    1    2    0    0 -.24572414E+02 0.19669439E+02 0.17736445E+03 0.18013561E+03 0.51099893E-03 0.0000E+00 0.9000E+01
#aMCatNLO 1  0  0  2  2 0.10644284E+03 0.00000000E+00  9  5  0 0.00000000E+00 0.00000000E+00 0.00000000E+00 0.00000000E+00 0.00000000E+00
  <rwgt>
   <wgt id='1001'> 0.15478E+04 </wgt>
   <wgt id='1002'> 0.15482E+04 </wgt>
   <wgt id='1003'> 0.15474E+04 </wgt>
   <wgt id='1004'> 0.17349E+04 </wgt>
   <wgt id='1005'> 0.17371E+04 </wgt>
   <wgt id='1006'> 0.17320E+04 </wgt>
   <wgt id='1007'> 0.13355E+04 </wgt>
   <wgt id='1008'> 0.13344E+04 </wgt>
   <wgt id='1009'> 0.13369E+04 </wgt>
  </rwgt>
  </event>
  <event>
  5      0 0.15478455E+04 0.13506580E+02 0.75467711E-02 0.13841957E+00
       -4 -1    0    0    0  501 0.00000000E+00 0.00000000E+00 0.26851896E+02 0.26896595E+02 0.15500000E+01 0.0000E+00 0.9000E+01
        4 -1    0    0  501    0 0.00000000E+00 0.00000000E+00 -.84329328E+02 0.84343572E+02 0.15500000E+01 0.0000E+00 0.9000E+01
       23  2    1    2    0    0 0.00000000E+00 0.00000000E+00 -.57477432E+02 0.11124017E+03 0.95240325E+02 0.0000E+00 0.0000E+00
      -11  1    3    3    0    0 -.13638991E+02 -.11828398E+02 -.80206688E+02 0.82213417E+02 0.51099893E-03 0.0000E+00 0.9000E+01
       11  1    3    3    0    0 0.13638991E+02 0.11828398E+02 0.22729256E+02 0.29026749E+02 0.51099893E-03 0.0000E+00 0.9000E+01
#aMCatNLO 1  0  0  2  1 0.26429539E+02 0.00000000E+00  9  5  0 0.00000000E+00 0.00000000E+00 0.00000000E+00 0.00000000E+00 0.00000000E+00
  <rwgt>
   <wgt id='1001'> 0.15479E+04 </wgt>
   <wgt id='1002'> 0.15991E+04 </wgt>
   <wgt id='1003'> 0.14783E+04 </wgt>
   <wgt id='1004'> 0.16334E+04 </wgt>
   <wgt id='1005'> 0.17536E+04 </wgt>
   <wgt id='1006'> 0.14716E+04 </wgt>
   <wgt id='1007'> 0.17245E+04 </wgt>
   <wgt id='1008'> 0.16710E+04 </wgt>
   <wgt id='1009'> 0.17956E+04 </wgt>
  </rwgt>
  </event>
  <event>
  5      0 0.15478455E+04 0.44105723E+02 0.75467711E-02 0.12267723E+00
       -2 -1    0    0    0  501 0.00000000E+00 0.00000000E+00 0.21090751E+01 0.21332130E+01 0.32000000E+00 0.0000E+00 0.9000E+01
        2 -1    0    0  501    0 0.00000000E+00 0.00000000E+00 -.96490803E+03 0.96490809E+03 0.32000000E+00 0.0000E+00 0.9000E+01
       23  2    1    2    0    0 0.00000000E+00 0.00000000E+00 -.96279896E+03 0.96704130E+03 0.90482268E+02 0.0000E+00 0.0000E+00
      -11  1    3    3    0    0 0.10809752E+02 -.42760543E+02 -.37375350E+03 0.37634690E+03 0.51099893E-03 0.0000E+00 0.9000E+01
       11  1    3    3    0    0 -.10809752E+02 0.42760543E+02 -.58904546E+03 0.59069440E+03 0.51099893E-03 0.0000E+00 0.9000E+01
#aMCatNLO 1  0  0  1  2 0.43403981E+02 0.00000000E+00  9  5  0 0.00000000E+00 0.00000000E+00 0.00000000E+00 0.00000000E+00 0.00000000E+00
  <rwgt>
   <wgt id='1001'> 0.15479E+04 </wgt>
   <wgt id='1002'> 0.15476E+04 </wgt>
   <wgt id='1003'> 0.15482E+04 </wgt>
   <wgt id='1004'> 0.16616E+04 </wgt>
   <wgt id='1005'> 0.16628E+04 </wgt>
   <wgt id='1006'> 0.16600E+04 </wgt>
   <wgt id='1007'> 0.14075E+04 </wgt>
   <wgt id='1008'> 0.14059E+04 </wgt>
   <wgt id='1009'> 0.14095E+04 </wgt>
  </rwgt>
  </event>
  <event>
  5      0 0.15478455E+04 0.30000000E+02 0.75467711E-02 0.16036513E+00
       -1 -1    0    0    0  501 0.00000000E+00 0.00000000E+00 0.17900778E+01 0.18184550E+01 0.32000000E+00 0.0000E+00 0.9000E+01
        1 -1    0    0  501    0 0.00000000E+00 0.00000000E+00 -.10613209E+04 0.10613209E+04 0.32000000E+00 0.0000E+00 0.9000E+01
       23  2    1    2    0    0 0.00000000E+00 0.00000000E+00 -.10595308E+04 0.10631394E+04 0.87520439E+02 0.0000E+00 0.0000E+00
      -11  1    3    3    0    0 -.29591273E+00 0.36242817E+01 -.10594966E+04 0.10595029E+04 0.51099893E-03 0.0000E+00 0.9000E+01
       11  1    3    3    0    0 0.29591273E+00 -.36242817E+01 -.34161465E-01 0.36365023E+01 0.51099893E-03 0.0000E+00 0.9000E+01
#aMCatNLO 1  0  0  1  1 0.15201883E+02 0.00000000E+00  9  5  0 0.00000000E+00 0.00000000E+00 0.00000000E+00 0.00000000E+00 0.00000000E+00
  <rwgt>
   <wgt id='1001'> 0.15479E+04 </wgt>
   <wgt id='1002'> 0.14615E+04 </wgt>
   <wgt id='1003'> 0.17012E+04 </wgt>
   <wgt id='1004'> 0.18716E+04 </wgt>
   <wgt id='1005'> 0.17699E+04 </wgt>
   <wgt id='1006'> 0.20525E+04 </wgt>
   <wgt id='1007'> 0.11923E+04 </wgt>
   <wgt id='1008'> 0.11241E+04 </wgt>
   <wgt id='1009'> 0.13134E+04 </wgt>
  </rwgt>
  </event>
  <event>
  5      0 0.15478455E+04 0.26486202E+02 0.75467711E-02 0.14835083E+00
       -3 -1    0    0    0  501 0.00000000E+00 0.00000000E+00 0.12678844E+02 0.12688699E+02 0.50000000E+00 0.0000E+00 0.9000E+01
        3 -1    0    0  501    0 0.00000000E+00 0.00000000E+00 -.16270914E+03 0.16270991E+03 0.50000000E+00 0.0000E+00 0.9000E+01
       23  2    1    2    0    0 0.00000000E+00 0.00000000E+00 -.15003030E+03 0.17539861E+03 0.90860232E+02 0.0000E+00 0.0000E+00
      -11  1    3    3    0    0 0.17265645E+02 0.14122923E+02 -.15141540E+03 0.15304961E+03 0.51099893E-03 0.0000E+00 0.9000E+01
       11  1    3    3    0    0 -.17265645E+02 -.14122923E+02 0.13850992E+01 0.22349003E+02 0.51099893E-03 0.0000E+00 0.9000E+01
#aMCatNLO 1  0  0  1  2 0.26247016E+01 0.00000000E+00  9  5  0 0.00000000E+00 0.00000000E+00 0.00000000E+00 0.00000000E+00 0.00000000E+00
  <rwgt>
   <wgt id='1001'> 0.15479E+04 </wgt>
   <wgt id='1002'> 0.14969E+04 </wgt>
   <wgt id='1003'> 0.16134E+04 </wgt>
   <wgt id='1004'> 0.17502E+04 </wgt>
   <wgt id='1005'> 0.16968E+04 </wgt>
   <wgt id='1006'> 0.18186E+04 </wgt>
   <wgt id='1007'> 0.12990E+04 </wgt>
   <wgt id='1008'> 0.12529E+04 </wgt>
   <wgt id='1009'> 0.13585E+04 </wgt>
  </rwgt>
  </event>
  <event>
  5      0 -.15478455E+04 0.17534735E+02 0.75467711E-02 0.14573805E+00
        1 -1    0    0  501    0 0.00000000E+00 0.00000000E+00 0.39288388E+02 0.39289691E+02 0.32000000E+00 0.0000E+00 0.9000E+01
       -1 -1    0    0    0  501 0.00000000E+00 0.00000000E+00 -.47784243E+02 0.47785314E+02 0.32000000E+00 0.0000E+00 0.9000E+01
       23  2    1    2    0    0 0.00000000E+00 0.00000000E+00 -.84958548E+01 0.87075005E+02 0.86659546E+02 0.0000E+00 0.0000E+00
      -11  1    3    3    0    0 0.95766684E+01 -.11281394E+02 -.45167690E+02 0.47530019E+02 0.51099893E-03 0.0000E+00 0.9000E+01
       11  1    3    3    0    0 -.95766684E+01 0.11281394E+02 0.36671836E+02 0.39544986E+02 0.51099893E-03 0.0000E+00 0.9000E+01
#aMCatNLO 1  0  0  1  2 0.18774855E+02 0.00000000E+00  9  5  0 0.00000000E+00 0.00000000E+00 0.00000000E+00 0.00000000E+00 0.00000000E+00
  <rwgt>
   <wgt id='1001'> -.15478E+04 </wgt>
   <wgt id='1002'> -.12111E+04 </wgt>
   <wgt id='1003'> -.20297E+04 </wgt>
   <wgt id='1004'> -.19157E+04 </wgt>
   <wgt id='1005'> -.15161E+04 </wgt>
   <wgt id='1006'> -.24837E+04 </wgt>
   <wgt id='1007'> -.11322E+04 </wgt>
   <wgt id='1008'> -.86734E+03 </wgt>
   <wgt id='1009'> -.15149E+04 </wgt>
  </rwgt>
  </event>
  <event>
  5      0 0.15478455E+04 0.41045106E+02 0.75467711E-02 0.11601129E+00
        3 -1    0    0  501    0 0.00000000E+00 0.00000000E+00 0.69388964E+02 0.69390765E+02 0.50000000E+00 0.0000E+00 0.9000E+01
       -3 -1    0    0    0  501 0.00000000E+00 0.00000000E+00 -.27222907E+02 0.27227498E+02 0.50000000E+00 0.0000E+00 0.9000E+01
       23  2    1    2    0    0 0.00000000E+00 0.00000000E+00 0.42166057E+02 0.96618264E+02 0.86931655E+02 0.0000E+00 0.0000E+00
      -11  1    3    3    0    0 -.29589961E+02 -.28445297E+02 0.36979844E+02 0.55246806E+02 0.51099893E-03 0.0000E+00 0.9000E+01
       11  1    3    3    0    0 0.29589961E+02 0.28445297E+02 0.51862126E+01 0.41371458E+02 0.51099893E-03 0.0000E+00 0.9000E+01
#aMCatNLO 1  0  0  1  1 0.87417561E+02 0.00000000E+00  9  5  0 0.00000000E+00 0.00000000E+00 0.00000000E+00 0.00000000E+00 0.00000000E+00
  <rwgt>
   <wgt id='1001'> 0.15478E+04 </wgt>
   <wgt id='1002'> 0.15197E+04 </wgt>
   <wgt id='1003'> 0.15838E+04 </wgt>
   <wgt id='1004'> 0.14657E+04 </wgt>
   <wgt id='1005'> 0.14652E+04 </wgt>
   <wgt id='1006'> 0.14664E+04 </wgt>
   <wgt id='1007'> 0.15898E+04 </wgt>
   <wgt id='1008'> 0.15359E+04 </wgt>
   <wgt id='1009'> 0.16587E+04 </wgt>
  </rwgt>
  </event>
  <event>
  5      0 0.15478455E+04 0.30000000E+02 0.75467711E-02 0.12655418E+00
       -1 -1    0    0    0  501 0.00000000E+00 0.00000000E+00 0.13519809E+02 0.13523595E+02 0.32000000E+00 0.0000E+00 0.9000E+01
        1 -1    0    0  501    0 0.00000000E+00 0.00000000E+00 -.15544765E+03 0.15544798E+03 0.32000000E+00 0.0000E+00 0.9000E+01
       23  2    1    2    0    0 0.00000000E+00 0.00000000E+00 -.14192784E+03 0.16897158E+03 0.91694498E+02 0.0000E+00 0.0000E+00
      -11  1    3    3    0    0 -.76441598E+01 0.20413683E+02 0.33619389E+01 0.22055708E+02 0.51099893E-03 0.0000E+00 0.9000E+01
       11  1    3    3    0    0 0.76441598E+01 -.20413683E+02 -.14528978E+03 0.14691587E+03 0.51099893E-03 0.0000E+00 0.9000E+01
#aMCatNLO 1  0  0  1  2 0.50155660E+02 0.00000000E+00  9  5  0 0.00000000E+00 0.00000000E+00 0.00000000E+00 0.00000000E+00 0.00000000E+00
  <rwgt>
   <wgt id='1001'> 0.15479E+04 </wgt>
   <wgt id='1002'> 0.15411E+04 </wgt>
   <wgt id='1003'> 0.15568E+04 </wgt>
   <wgt id='1004'> 0.17352E+04 </wgt>
   <wgt id='1005'> 0.17296E+04 </wgt>
   <wgt id='1006'> 0.17427E+04 </wgt>
   <wgt id='1007'> 0.13260E+04 </wgt>
   <wgt id='1008'> 0.13187E+04 </wgt>
   <wgt id='1009'> 0.13356E+04 </wgt>
  </rwgt>
  </event>
  <event>
  5      0 0.15478455E+04 0.30000000E+02 0.75467711E-02 0.13710310E+00
        1 -1    0    0  501    0 0.00000000E+00 0.00000000E+00 0.24451843E+03 0.24451864E+03 0.32000000E+00 0.0000E+00 0.9000E+01
       21 -1    0    0  502  501 0.00000000E+00 0.00000000E+00 -.58263706E+01 0.58744442E+01 0.75000000E+00 0.0000E+00 0.9000E+01
      -11  1    1    2    0    0 -.81386167E+01 0.10766895E+02 0.43275431E+02 0.45331292E+02 0.51099893E-03 0.0000E+00 0.9000E+01
       11  1    1    2    0    0 -.20563118E+02 -.20288432E+02 0.64107933E+02 0.70315641E+02 0.51099893E-03 0.0000E+00 0.9000E+01
        1  1    1    2  502    0 0.28701735E+02 0.95215365E+01 0.13130870E+03 0.13474615E+03 0.32000000E+00 0.0000E+00 0.9000E+01
#aMCatNLO 2  0  0  2  2 0.30239862E+02 0.00000000E+00  9  5  0 0.00000000E+00 0.00000000E+00 0.00000000E+00 0.00000000E+00 0.00000000E+00
  <rwgt>
   <wgt id='1001'> 0.15478E+04 </wgt>
   <wgt id='1002'> 0.13796E+04 </wgt>
   <wgt id='1003'> 0.17644E+04 </wgt>
   <wgt id='1004'> 0.17293E+04 </wgt>
   <wgt id='1005'> 0.15412E+04 </wgt>
   <wgt id='1006'> 0.19712E+04 </wgt>
   <wgt id='1007'> 0.13292E+04 </wgt>
   <wgt id='1008'> 0.11847E+04 </wgt>
   <wgt id='1009'> 0.15152E+04 </wgt>
  </rwgt>
  </event>
  <event>
  5      0 0.15478455E+04 0.34217935E+02 0.75467711E-02 0.13034592E+00
       -1 -1    0    0    0  501 0.00000000E+00 0.00000000E+00 0.19944775E+01 0.20199853E+01 0.32000000E+00 0.0000E+00 0.9000E+01
        1 -1    0    0  501    0 0.00000000E+00 0.00000000E+00 -.11248445E+04 0.11248445E+04 0.32000000E+00 0.0000E+00 0.9000E+01
       23  2    1    2    0    0 0.00000000E+00 0.00000000E+00 -.11228500E+04 0.11268645E+04 0.95034192E+02 0.0000E+00 0.0000E+00
      -11  1    3    3    0    0 -.41596939E+02 0.22900105E+02 -.58248423E+03 0.58441646E+03 0.51099893E-03 0.0000E+00 0.9000E+01
       11  1    3    3    0    0 0.41596939E+02 -.22900105E+02 -.54036577E+03 0.54244805E+03 0.51099893E-03 0.0000E+00 0.9000E+01
#aMCatNLO 1  0  0  2  1 0.24567137E+01 0.00000000E+00  9  5  0 0.00000000E+00 0.00000000E+00 0.00000000E+00 0.00000000E+00 0.00000000E+00
  <rwgt>
   <wgt id='1001'> 0.15479E+04 </wgt>
   <wgt id='1002'> 0.14397E+04 </wgt>
   <wgt id='1003'> 0.16848E+04 </wgt>
   <wgt id='1004'> 0.19882E+04 </wgt>
   <wgt id='1005'> 0.18373E+04 </wgt>
   <wgt id='1006'> 0.21796E+04 </wgt>
   <wgt id='1007'> 0.11408E+04 </wgt>
   <wgt id='1008'> 0.10710E+04 </wgt>
   <wgt id='1009'> 0.12287E+04 </wgt>
  </rwgt>
  </event>
  <event>
  5      0 0.15478455E+04 0.30000000E+02 0.75467711E-02 0.10541085E+00
        2 -1    0    0  501    0 0.00000000E+00 0.00000000E+00 0.65150889E+01 0.65229429E+01 0.32000000E+00 0.0000E+00 0.9000E+01
       -2 -1    0    0    0  501 0.00000000E+00 0.00000000E+00 -.27215497E+03 0.27215516E+03 0.32000000E+00 0.0000E+00 0.9000E+01
       23  2    1    2    0    0 0.00000000E+00 0.00000000E+00 -.26563988E+03 0.27867810E+03 0.84243323E+02 0.0000E+00 0.0000E+00
      -11  1    3    3    0    0 -.28426780E+02 0.17322402E+01 -.30156752E+02 0.41479057E+02 0.51099893E-03 0.0000E+00 0.9000E+01
       11  1    3    3    0    0 0.28426780E+02 -.17322402E+01 -.23548313E+03 0.23719904E+03 0.51099893E-03 0.0000E+00 0.9000E+01
#aMCatNLO 1  0  0  1  2 0.20133113E+03 0.00000000E+00  9  5  0 0.00000000E+00 0.00000000E+00 0.00000000E+00 0.00000000E+00 0.00000000E+00
  <rwgt>
   <wgt id='1001'> 0.15479E+04 </wgt>
   <wgt id='1002'> 0.14778E+04 </wgt>
   <wgt id='1003'> 0.16391E+04 </wgt>
   <wgt id='1004'> 0.13704E+04 </wgt>
   <wgt id='1005'> 0.13315E+04 </wgt>
   <wgt id='1006'> 0.14212E+04 </wgt>
   <wgt id='1007'> 0.17287E+04 </wgt>
   <wgt id='1008'> 0.16252E+04 </wgt>
   <wgt id='1009'> 0.18635E+04 </wgt>
  </rwgt>
  </event>
  <event>
  6      0 0.15478455E+04 0.30000000E+02 0.75467711E-02 0.14018953E+00
       -3 -1    0    0    0  501 0.00000000E+00 0.00000000E+00 0.22579381E+02 0.22584917E+02 0.50000000E+00 0.0000E+00 0.9000E+01
       21 -1    0    0  501  502 0.00000000E+00 0.00000000E+00 -.13444142E+03 0.13444351E+03 0.75000000E+00 0.0000E+00 0.9000E+01
       23  2    1    2    0    0 -.14321869E+01 -.57480626E+01 -.11664488E+03 0.14939842E+03 0.93159912E+02 0.0000E+00 0.0000E+00
      -11  1    3    3    0    0 0.26598553E+02 0.68370880E+01 0.13225856E+01 0.27495054E+02 0.51099893E-03 0.0000E+00 0.9000E+01
       11  1    3    3    0    0 -.28030740E+02 -.12585151E+02 -.11796746E+03 0.12190337E+03 0.51099893E-03 0.0000E+00 0.9000E+01
       -3  1    1    2    0  502 0.14321869E+01 0.57480626E+01 0.47828424E+01 0.76300042E+01 0.50000000E+00 0.0000E+00 0.9000E+01
#aMCatNLO 2  0  0  2  1 0.59237980E+01 0.00000000E+00  9  5  0 0.00000000E+00 0.00000000E+00 0.00000000E+00 0.00000000E+00 0.00000000E+00
  <rwgt>
   <wgt id='1001'> 0.15479E+04 </wgt>
   <wgt id='1002'> 0.13761E+04 </wgt>
   <wgt id='1003'> 0.17704E+04 </wgt>
   <wgt id='1004'> 0.16533E+04 </wgt>
   <wgt id='1005'> 0.14697E+04 </wgt>
   <wgt id='1006'> 0.18909E+04 </wgt>
   <wgt id='1007'> 0.14019E+04 </wgt>
   <wgt id='1008'> 0.12462E+04 </wgt>
   <wgt id='1009'> 0.16035E+04 </wgt>
  </rwgt>
  </event>
  <event>
  6      0 0.15478455E+04 0.30438913E+02 0.75467711E-02 0.12754435E+00
       -2 -1    0    0    0  501 0.00000000E+00 0.00000000E+00 0.86654064E+02 0.86654655E+02 0.32000000E+00 0.0000E+00 0.9000E+01
       21 -1    0    0  501  502 0.00000000E+00 0.00000000E+00 -.55951602E+02 0.55956629E+02 0.75000000E+00 0.0000E+00 0.9000E+01
       23  2    1    2    0    0 0.31897330E+02 0.23408254E+02 0.15270209E+02 0.10014197E+03 0.90718511E+02 0.0000E+00 0.0000E+00
      -11  1    3    3    0    0 0.13096521E+02 0.42678961E+02 0.42650914E+02 0.61742312E+02 0.51099893E-03 0.0000E+00 0.9000E+01
       11  1    3    3    0    0 0.18800808E+02 -.19270707E+02 -.27380705E+02 0.38399655E+02 0.51099893E-03 0.0000E+00 0.9000E+01
       -2  1    1    2    0  502 -.31897330E+02 -.23408254E+02 0.15432252E+02 0.42469316E+02 0.32000000E+00 0.0000E+00 0.9000E+01
#aMCatNLO 2  0  0  2  2 0.39564959E+02 0.00000000E+00  9  5  0 0.00000000E+00 0.00000000E+00 0.00000000E+00 0.00000000E+00 0.00000000E+00
  <rwgt>
   <wgt id='1001'> 0.15479E+04 </wgt>
   <wgt id='1002'> 0.13906E+04 </wgt>
   <wgt id='1003'> 0.17465E+04 </wgt>
   <wgt id='1004'> 0.16054E+04 </wgt>
   <wgt id='1005'> 0.14423E+04 </wgt>
   <wgt id='1006'> 0.18114E+04 </wgt>
   <wgt id='1007'> 0.14607E+04 </wgt>
   <wgt id='1008'> 0.13123E+04 </wgt>
   <wgt id='1009'> 0.16482E+04 </wgt>
  </rwgt>
  </event>
  <event>
  5      0 0.15478455E+04 0.30000000E+02 0.75467711E-02 0.12510532E+00
       -2 -1    0    0    0  501 0.00000000E+00 0.00000000E+00 0.16636204E+02 0.16639282E+02 0.32000000E+00 0.0000E+00 0.9000E+01
        2 -1    0    0  501    0 0.00000000E+00 0.00000000E+00 -.11975580E+03 0.11975623E+03 0.32000000E+00 0.0000E+00 0.9000E+01
       23  2    1    2    0    0 0.00000000E+00 0.00000000E+00 -.10311960E+03 0.13639551E+03 0.89275326E+02 0.0000E+00 0.0000E+00
      -11  1    3    3    0    0 0.11794714E+02 -.16095916E+02 0.94440668E+01 0.22076780E+02 0.51099893E-03 0.0000E+00 0.9000E+01
       11  1    3    3    0    0 -.11794714E+02 0.16095916E+02 -.11256366E+03 0.11431873E+03 0.51099893E-03 0.0000E+00 0.9000E+01
#aMCatNLO 1  0  0  2  1 0.57819502E+02 0.00000000E+00  9  5  0 0.00000000E+00 0.00000000E+00 0.00000000E+00 0.00000000E+00 0.00000000E+00
  <rwgt>
   <wgt id='1001'> 0.15479E+04 </wgt>
   <wgt id='1002'> 0.15401E+04 </wgt>
   <wgt id='1003'> 0.15582E+04 </wgt>
   <wgt id='1004'> 0.17451E+04 </wgt>
   <wgt id='1005'> 0.17383E+04 </wgt>
   <wgt id='1006'> 0.17542E+04 </wgt>
   <wgt id='1007'> 0.13165E+04 </wgt>
   <wgt id='1008'> 0.13084E+04 </wgt>
   <wgt id='1009'> 0.13273E+04 </wgt>
  </rwgt>
  </event>
  <event>
  5      0 0.15478455E+04 0.22182328E+02 0.75467711E-02 0.14535251E+00
        3 -1    0    0  501    0 0.00000000E+00 0.00000000E+00 0.36612965E+02 0.36616379E+02 0.50000000E+00 0.0000E+00 0.9000E+01
       -3 -1    0    0    0  501 0.00000000E+00 0.00000000E+00 -.56482959E+02 0.56485172E+02 0.50000000E+00 0.0000E+00 0.9000E+01
       23  2    1    2    0    0 0.00000000E+00 0.00000000E+00 -.19869994E+02 0.93101551E+02 0.90956485E+02 0.0000E+00 0.0000E+00
      -11  1    3    3    0    0 0.69900202E+01 -.15219366E+02 -.53214316E+02 0.55787569E+02 0.51099893E-03 0.0000E+00 0.9000E+01
       11  1    3    3    0    0 -.69900202E+01 0.15219366E+02 0.33344321E+02 0.37313982E+02 0.51099893E-03 0.0000E+00 0.9000E+01
#aMCatNLO 1  0  0  2  1 0.15781812E+02 0.00000000E+00  9  5  0 0.00000000E+00 0.00000000E+00 0.00000000E+00 0.00000000E+00 0.00000000E+00
  <rwgt>
   <wgt id='1001'> 0.15478E+04 </wgt>
   <wgt id='1002'> 0.15349E+04 </wgt>
   <wgt id='1003'> 0.15532E+04 </wgt>
   <wgt id='1004'> 0.17385E+04 </wgt>
   <wgt id='1005'> 0.17353E+04 </wgt>
   <wgt id='1006'> 0.17295E+04 </wgt>
   <wgt id='1007'> 0.14276E+04 </wgt>
   <wgt id='1008'> 0.13918E+04 </wgt>
   <wgt id='1009'> 0.14654E+04 </wgt>
  </rwgt>
  </event>
  <event>
  5      0 0.15478455E+04 0.39128549E+02 0.75467711E-02 0.12567616E+00
       -2 -1    0    0    0  501 0.00000000E+00 0.00000000E+00 0.87171817E+01 0.87230532E+01 0.32000000E+00 0.0000E+00 0.9000E+01
        2 -1    0    0  501    0 0.00000000E+00 0.00000000E+00 -.17606454E+03 0.17606483E+03 0.32000000E+00 0.0000E+00 0.9000E+01
       23  2    1    2    0    0 0.00000000E+00 0.00000000E+00 -.16734736E+03 0.18478788E+03 0.78367236E+02 0.0000E+00 0.0000E+00
      -11  1    3    3    0    0 0.38030593E+02 0.92042047E+01 -.88570425E+02 0.96828526E+02 0.51099893E-03 0.0000E+00 0.9000E+01
       11  1    3    3    0    0 -.38030593E+02 -.92042047E+01 -.78776933E+02 0.87959357E+02 0.51099893E-03 0.0000E+00 0.9000E+01
#aMCatNLO 1  0  0  1  1 0.35702451E+02 0.00000000E+00  9  5  0 0.00000000E+00 0.00000000E+00 0.00000000E+00 0.00000000E+00 0.00000000E+00
  <rwgt>
   <wgt id='1001'> 0.15479E+04 </wgt>
   <wgt id='1002'> 0.15496E+04 </wgt>
   <wgt id='1003'> 0.15457E+04 </wgt>
   <wgt id='1004'> 0.92176E+03 </wgt>
   <wgt id='1005'> 0.10103E+04 </wgt>
   <wgt id='1006'> 0.80825E+03 </wgt>
   <wgt id='1007'> 0.20209E+04 </wgt>
   <wgt id='1008'> 0.19499E+04 </wgt>
   <wgt id='1009'> 0.21121E+04 </wgt>
  </rwgt>
  </event>
  <event>
  6      0 0.15478455E+04 0.42844878E+02 0.75467711E-02 0.10591460E+00
       21 -1    0    0  502  501 0.00000000E+00 0.00000000E+00 0.12394986E+03 0.12395213E+03 0.75000000E+00 0.0000E+00 0.9000E+01
        2 -1    0    0  501    0 0.00000000E+00 0.00000000E+00 -.48964377E+03 0.48964388E+03 0.32000000E+00 0.0000E+00 0.9000E+01
       23  2    1    2    0    0 0.13278925E+03 0.13569912E+03 -.36786670E+03 0.42372221E+03 0.90373450E+02 0.0000E+00 0.0000E+00
      -11  1    3    3    0    0 0.11858571E+03 0.14514355E+03 -.29992787E+03 0.35367492E+03 0.51099893E-03 0.0000E+00 0.9000E+01
       11  1    3    3    0    0 0.14203540E+02 -.94444246E+01 -.67938833E+02 0.70047289E+02 0.51099893E-03 0.0000E+00 0.9000E+01
        2  1    1    2  502    0 -.13278925E+03 -.13569912E+03 0.21727892E+01 0.18987380E+03 0.32000000E+00 0.0000E+00 0.9000E+01
#aMCatNLO 2  0  0  1  1 0.18986110E+03 0.00000000E+00  9  5  0 0.00000000E+00 0.00000000E+00 0.00000000E+00 0.00000000E+00 0.00000000E+00
  <rwgt>
   <wgt id='1001'> 0.15479E+04 </wgt>
   <wgt id='1002'> 0.14276E+04 </wgt>
   <wgt id='1003'> 0.17044E+04 </wgt>
   <wgt id='1004'> 0.14686E+04 </wgt>
   <wgt id='1005'> 0.13545E+04 </wgt>
   <wgt id='1006'> 0.16171E+04 </wgt>
   <wgt id='1007'> 0.16318E+04 </wgt>
   <wgt id='1008'> 0.15050E+04 </wgt>
   <wgt id='1009'> 0.17969E+04 </wgt>
  </rwgt>
  </event>
  <event>
  4      0 -.15478455E+04 0.27461230E+02 0.75467711E-02 0.16986258E+00
       -4 -1    0    0    0  501 0.00000000E+00 0.00000000E+00 0.14405611E+03 0.14406445E+03 0.15500000E+01 0.0000E+00 0.9000E+01
        4 -1    0    0  501    0 0.00000000E+00 0.00000000E+00 -.13028042E+01 0.20247960E+01 0.15500000E+01 0.0000E+00 0.9000E+01
      -11  1    1    2    0    0 -.69796423E+01 -.10046726E+02 0.26422804E+02 0.29117292E+02 0.51099893E-03 0.0000E+00 0.9000E+01
       11  1    1    2    0    0 0.69796423E+01 0.10046726E+02 0.11633050E+03 0.11697195E+03 0.51099893E-03 0.0000E+00 0.9000E+01
#aMCatNLO 1  0  0  2  2 0.38362542E-01 0.00000000E+00  9  5  0 0.00000000E+00 0.00000000E+00 0.00000000E+00 0.00000000E+00 0.00000000E+00
  <rwgt>
   <wgt id='1001'> -.15479E+04 </wgt>
   <wgt id='1002'> -.13281E+04 </wgt>
   <wgt id='1003'> -.18511E+04 </wgt>
   <wgt id='1004'> -.25202E+04 </wgt>
   <wgt id='1005'> -.21638E+04 </wgt>
   <wgt id='1006'> -.30118E+04 </wgt>
   <wgt id='1007'> -.77009E+03 </wgt>
   <wgt id='1008'> -.66034E+03 </wgt>
   <wgt id='1009'> -.92151E+03 </wgt>
  </rwgt>
  </event>
  <event>
  5      0 0.15478455E+04 0.19042444E+02 0.75467711E-02 0.15242233E+00
       -3 -1    0    0    0  501 0.00000000E+00 0.00000000E+00 0.12458848E+02 0.12468877E+02 0.50000000E+00 0.0000E+00 0.9000E+01
        3 -1    0    0  501    0 0.00000000E+00 0.00000000E+00 -.16409814E+03 0.16409890E+03 0.50000000E+00 0.0000E+00 0.9000E+01
       23  2    1    2    0    0 0.00000000E+00 0.00000000E+00 -.15163929E+03 0.17656778E+03 0.90452780E+02 0.0000E+00 0.0000E+00
      -11  1    3    3    0    0 -.75806122E+01 -.18792536E+02 0.31067026E+01 0.20500651E+02 0.51099893E-03 0.0000E+00 0.9000E+01
       11  1    3    3    0    0 0.75806122E+01 0.18792536E+02 -.15474600E+03 0.15606713E+03 0.51099893E-03 0.0000E+00 0.9000E+01
#aMCatNLO 1  0  0  1  2 0.63059569E+00 0.00000000E+00  9  5  0 0.00000000E+00 0.00000000E+00 0.00000000E+00 0.00000000E+00 0.00000000E+00
  <rwgt>
   <wgt id='1001'> 0.15479E+04 </wgt>
   <wgt id='1002'> 0.16781E+04 </wgt>
   <wgt id='1003'> 0.12750E+04 </wgt>
   <wgt id='1004'> 0.78026E+03 </wgt>
   <wgt id='1005'> 0.10519E+04 </wgt>
   <wgt id='1006'> 0.30474E+03 </wgt>
   <wgt id='1007'> 0.23648E+04 </wgt>
   <wgt id='1008'> 0.23388E+04 </wgt>
   <wgt id='1009'> 0.23175E+04 </wgt>
  </rwgt>
  </event>
  <event>
  6      0 0.15478455E+04 0.30000000E+02 0.75467711E-02 0.13676948E+00
       -1 -1    0    0    0  501 0.00000000E+00 0.00000000E+00 0.15326636E+02 0.15329977E+02 0.32000000E+00 0.0000E+00 0.9000E+01
        1 -1    0    0  502    0 0.00000000E+00 0.00000000E+00 -.31588485E+03 0.31588501E+03 0.32000000E+00 0.0000E+00 0.9000E+01
       23  2    1    2    0    0 -.43683996E+01 0.21628166E+02 -.13453302E+03 0.16372831E+03 0.90669539E+02 0.0000E+00 0.0000E+00
      -11  1    3    3    0    0 -.17822311E+02 -.76143716E+01 0.54175169E+01 0.20123690E+02 0.51099893E-03 0.0000E+00 0.9000E+01
       11  1    3    3    0    0 0.13453911E+02 0.29242537E+02 -.13995054E+03 0.14360462E+03 0.51099893E-03 0.0000E+00 0.9000E+01
       21  1    1    2  502  501 0.43683996E+01 -.21628166E+02 -.16602519E+03 0.16748668E+03 0.75000000E+00 0.0000E+00 0.9000E+01
#aMCatNLO 2  0  0  2  1 0.22064915E+02 0.00000000E+00  9  5  0 0.00000000E+00 0.00000000E+00 0.00000000E+00 0.00000000E+00 0.00000000E+00
  <rwgt>
   <wgt id='1001'> 0.15479E+04 </wgt>
   <wgt id='1002'> 0.13800E+04 </wgt>
   <wgt id='1003'> 0.17638E+04 </wgt>
   <wgt id='1004'> 0.16608E+04 </wgt>
   <wgt id='1005'> 0.14807E+04 </wgt>
   <wgt id='1006'> 0.18925E+04 </wgt>
   <wgt id='1007'> 0.14087E+04 </wgt>
   <wgt id='1008'> 0.12560E+04 </wgt>
   <wgt id='1009'> 0.16053E+04 </wgt>
  </rwgt>
  </event>
  <event>
  5      0 0.15478455E+04 0.39736424E+02 0.75467711E-02 0.12810553E+00
        1 -1    0    0  501    0 0.00000000E+00 0.00000000E+00 0.46587202E+03 0.46587213E+03 0.32000000E+00 0.0000E+00 0.9000E+01
       -1 -1    0    0    0  501 0.00000000E+00 0.00000000E+00 -.40785419E+01 0.40910761E+01 0.32000000E+00 0.0000E+00 0.9000E+01
       23  2    1    2    0    0 0.00000000E+00 0.00000000E+00 0.46179348E+03 0.46996321E+03 0.87247915E+02 0.0000E+00 0.0000E+00
      -11  1    3    3    0    0 0.16430756E+01 0.39702439E+02 0.32786413E+03 0.33026334E+03 0.51099893E-03 0.0000E+00 0.9000E+01
       11  1    3    3    0    0 -.16430756E+01 -.39702439E+02 0.13392935E+03 0.13969987E+03 0.51099893E-03 0.0000E+00 0.9000E+01
#aMCatNLO 1  0  0  2  1 0.25248081E+02 0.00000000E+00  9  5  0 0.00000000E+00 0.00000000E+00 0.00000000E+00 0.00000000E+00 0.00000000E+00
  <rwgt>
   <wgt id='1001'> 0.15478E+04 </wgt>
   <wgt id='1002'> 0.15473E+04 </wgt>
   <wgt id='1003'> 0.15485E+04 </wgt>
   <wgt id='1004'> 0.16805E+04 </wgt>
   <wgt id='1005'> 0.16815E+04 </wgt>
   <wgt id='1006'> 0.16791E+04 </wgt>
   <wgt id='1007'> 0.13885E+04 </wgt>
   <wgt id='1008'> 0.13868E+04 </wgt>
   <wgt id='1009'> 0.13908E+04 </wgt>
  </rwgt>
  </event>
  <event>
  5      0 -.15478455E+04 0.21144659E+02 0.75467711E-02 0.14230011E+00
       -4 -1    0    0    0  501 0.00000000E+00 0.00000000E+00 0.62360600E+03 0.62360793E+03 0.15500000E+01 0.0000E+00 0.9000E+01
        4 -1    0    0  501    0 0.00000000E+00 0.00000000E+00 -.30856305E+01 0.34530589E+01 0.15500000E+01 0.0000E+00 0.9000E+01
       23  2    1    2    0    0 0.00000000E+00 0.00000000E+00 0.62052037E+03 0.62706099E+03 0.90332442E+02 0.0000E+00 0.0000E+00
      -11  1    3    3    0    0 -.26184857E+02 -.93938930E+01 0.55726151E+03 0.55795544E+03 0.51099893E-03 0.0000E+00 0.9000E+01
       11  1    3    3    0    0 0.26184857E+02 0.93938930E+01 0.63258866E+02 0.69105543E+02 0.51099893E-03 0.0000E+00 0.9000E+01
#aMCatNLO 1  0  0  2  1 0.33675553E+01 0.00000000E+00  9  5  0 0.00000000E+00 0.00000000E+00 0.00000000E+00 0.00000000E+00 0.00000000E+00
  <rwgt>
   <wgt id='1001'> -.15479E+04 </wgt>
   <wgt id='1002'> -.12723E+04 </wgt>
   <wgt id='1003'> -.19106E+04 </wgt>
   <wgt id='1004'> -.29526E+04 </wgt>
   <wgt id='1005'> -.24930E+04 </wgt>
   <wgt id='1006'> -.35560E+04 </wgt>
   <wgt id='1007'> -.42518E+03 </wgt>
   <wgt id='1008'> -.30383E+03 </wgt>
   <wgt id='1009'> -.58590E+03 </wgt>
  </rwgt>
  </event>
  <event>
  5      0 0.15478455E+04 0.41651316E+02 0.75467711E-02 0.13067956E+00
        1 -1    0    0  501    0 0.00000000E+00 0.00000000E+00 0.14343003E+02 0.14346572E+02 0.32000000E+00 0.0000E+00 0.9000E+01
       -1 -1    0    0    0  501 0.00000000E+00 0.00000000E+00 -.14439206E+03 0.14439242E+03 0.32000000E+00 0.0000E+00 0.9000E+01
       23  2    1    2    0    0 0.00000000E+00 0.00000000E+00 -.13004906E+03 0.15873899E+03 0.91023672E+02 0.0000E+00 0.0000E+00
      -11  1    3    3    0    0 -.39814837E+02 0.12231550E+02 -.33034205E+02 0.53160989E+02 0.51099893E-03 0.0000E+00 0.9000E+01
       11  1    3    3    0    0 0.39814837E+02 -.12231550E+02 -.97014856E+02 0.10557800E+03 0.51099893E-03 0.0000E+00 0.9000E+01
#aMCatNLO 1  0  0  2  1 0.11863003E+02 0.00000000E+00  9  5  0 0.00000000E+00 0.00000000E+00 0.00000000E+00 0.00000000E+00 0.00000000E+00
  <rwgt>
   <wgt id='1001'> 0.15478E+04 </wgt>
   <wgt id='1002'> 0.19000E+04 </wgt>
   <wgt id='1003'> 0.10975E+04 </wgt>
   <wgt id='1004'> 0.16573E+04 </wgt>
   <wgt id='1005'> 0.20505E+04 </wgt>
   <wgt id='1006'> 0.11547E+04 </wgt>
   <wgt id='1007'> 0.14021E+04 </wgt>
   <wgt id='1008'> 0.17083E+04 </wgt>
   <wgt id='1009'> 0.10105E+04 </wgt>
  </rwgt>
  </event>
  <event>
  6      0 0.15478455E+04 0.43376193E+02 0.75467711E-02 0.11684462E+00
        3 -1    0    0  501    0 0.00000000E+00 0.00000000E+00 0.23249370E+03 0.23249424E+03 0.50000000E+00 0.0000E+00 0.9000E+01
       21 -1    0    0  502  501 0.00000000E+00 0.00000000E+00 -.44783681E+02 0.44789961E+02 0.75000000E+00 0.0000E+00 0.9000E+01
       23  2    1    2    0    0 0.77809755E+02 -.15785448E+02 0.13956827E+03 0.18443261E+03 0.90733401E+02 0.0000E+00 0.0000E+00
      -11  1    3    3    0    0 0.93973167E+02 -.24306235E+02 0.13374400E+03 0.16525498E+03 0.51099893E-03 0.0000E+00 0.9000E+01
       11  1    3    3    0    0 -.16163412E+02 0.85207872E+01 0.58242614E+01 0.19177636E+02 0.51099893E-03 0.0000E+00 0.9000E+01
        3  1    1    2  502    0 -.77809755E+02 0.15785448E+02 0.48141753E+02 0.92851584E+02 0.50000000E+00 0.0000E+00 0.9000E+01
#aMCatNLO 2  0  0  2  2 0.79394826E+02 0.00000000E+00  9  5  0 0.00000000E+00 0.00000000E+00 0.00000000E+00 0.00000000E+00 0.00000000E+00
  <rwgt>
   <wgt id='1001'> 0.15478E+04 </wgt>
   <wgt id='1002'> 0.14052E+04 </wgt>
   <wgt id='1003'> 0.17270E+04 </wgt>
   <wgt id='1004'> 0.15614E+04 </wgt>
   <wgt id='1005'> 0.14175E+04 </wgt>
   <wgt id='1006'> 0.17422E+04 </wgt>
   <wgt id='1007'> 0.15127E+04 </wgt>
   <wgt id='1008'> 0.13733E+04 </wgt>
   <wgt id='1009'> 0.16878E+04 </wgt>
  </rwgt>
  </event>
  <event>
  6      0 0.15478455E+04 0.47522583E+02 0.75467711E-02 0.12526403E+00
       21 -1    0    0  502  501 0.00000000E+00 0.00000000E+00 0.52025441E+01 0.52563262E+01 0.75000000E+00 0.0000E+00 0.9000E+01
        2 -1    0    0  501    0 0.00000000E+00 0.00000000E+00 -.84104859E+03 0.84104865E+03 0.32000000E+00 0.0000E+00 0.9000E+01
       23  2    1    2    0    0 -.57286142E+01 0.25239745E+02 -.74200442E+03 0.74895912E+03 0.98485278E+02 0.0000E+00 0.0000E+00
      -11  1    3    3    0    0 0.29884106E+02 -.23467493E+02 -.38728874E+03 0.38914823E+03 0.51099893E-03 0.0000E+00 0.9000E+01
       11  1    3    3    0    0 -.35612720E+02 0.48707238E+02 -.35471568E+03 0.35981089E+03 0.51099893E-03 0.0000E+00 0.9000E+01
        2  1    1    2  502    0 0.57286142E+01 -.25239745E+02 -.93841627E+02 0.97345853E+02 0.32000000E+00 0.0000E+00 0.9000E+01
#aMCatNLO 2  0  0  1  2 0.25881687E+02 0.00000000E+00  9  5  0 0.00000000E+00 0.00000000E+00 0.00000000E+00 0.00000000E+00 0.00000000E+00
  <rwgt>
   <wgt id='1001'> 0.15479E+04 </wgt>
   <wgt id='1002'> 0.13932E+04 </wgt>
   <wgt id='1003'> 0.17423E+04 </wgt>
   <wgt id='1004'> 0.16252E+04 </wgt>
   <wgt id='1005'> 0.14628E+04 </wgt>
   <wgt id='1006'> 0.18294E+04 </wgt>
   <wgt id='1007'> 0.14385E+04 </wgt>
   <wgt id='1008'> 0.12948E+04 </wgt>
   <wgt id='1009'> 0.16192E+04 </wgt>
  </rwgt>
  </event>
  <event>
  5      0 0.15478455E+04 0.39467599E+02 0.75467711E-02 0.12358282E+00
        1 -1    0    0  501    0 0.00000000E+00 0.00000000E+00 0.64892611E+03 0.64892619E+03 0.32000000E+00 0.0000E+00 0.9000E+01
       -1 -1    0    0    0  501 0.00000000E+00 0.00000000E+00 -.31664385E+01 0.31825670E+01 0.32000000E+00 0.0000E+00 0.9000E+01
       23  2    1    2    0    0 0.00000000E+00 0.00000000E+00 0.64575967E+03 0.65210876E+03 0.90775968E+02 0.0000E+00 0.0000E+00
      -11  1    3    3    0    0 -.36748834E+02 -.14394950E+02 0.48389409E+03 0.48550096E+03 0.51099893E-03 0.0000E+00 0.9000E+01
       11  1    3    3    0    0 0.36748834E+02 0.14394950E+02 0.16186558E+03 0.16660779E+03 0.51099893E-03 0.0000E+00 0.9000E+01
#aMCatNLO 1  0  0  2  2 0.46515575E+02 0.00000000E+00  9  5  0 0.00000000E+00 0.00000000E+00 0.00000000E+00 0.00000000E+00 0.00000000E+00
  <rwgt>
   <wgt id='1001'> 0.15478E+04 </wgt>
   <wgt id='1002'> 0.15475E+04 </wgt>
   <wgt id='1003'> 0.15482E+04 </wgt>
   <wgt id='1004'> 0.16656E+04 </wgt>
   <wgt id='1005'> 0.16669E+04 </wgt>
   <wgt id='1006'> 0.16640E+04 </wgt>
   <wgt id='1007'> 0.14029E+04 </wgt>
   <wgt id='1008'> 0.14012E+04 </wgt>
   <wgt id='1009'> 0.14050E+04 </wgt>
  </rwgt>
  </event>
  <event>
  5      0 0.15478455E+04 0.35368902E+02 0.75467711E-02 0.12844371E+00
        2 -1    0    0  501    0 0.00000000E+00 0.00000000E+00 0.54017416E+02 0.54018364E+02 0.32000000E+00 0.0000E+00 0.9000E+01
       -2 -1    0    0    0  501 0.00000000E+00 0.00000000E+00 -.38590618E+02 0.38591945E+02 0.32000000E+00 0.0000E+00 0.9000E+01
       23  2    1    2    0    0 0.00000000E+00 0.00000000E+00 0.15426798E+02 0.92610309E+02 0.91316390E+02 0.0000E+00 0.0000E+00
      -11  1    3    3    0    0 0.34454520E+02 0.79903264E+01 -.21569799E+02 0.41427231E+02 0.51099893E-03 0.0000E+00 0.9000E+01
       11  1    3    3    0    0 -.34454520E+02 -.79903264E+01 0.36996597E+02 0.51183078E+02 0.51099893E-03 0.0000E+00 0.9000E+01
#aMCatNLO 1  0  0  1  1 0.31018508E+02 0.00000000E+00  9  5  0 0.00000000E+00 0.00000000E+00 0.00000000E+00 0.00000000E+00 0.00000000E+00
  <rwgt>
   <wgt id='1001'> 0.15479E+04 </wgt>
   <wgt id='1002'> 0.15563E+04 </wgt>
   <wgt id='1003'> 0.15371E+04 </wgt>
   <wgt id='1004'> 0.19606E+04 </wgt>
   <wgt id='1005'> 0.19431E+04 </wgt>
   <wgt id='1006'> 0.19831E+04 </wgt>
   <wgt id='1007'> 0.12281E+04 </wgt>
   <wgt id='1008'> 0.12491E+04 </wgt>
   <wgt id='1009'> 0.12009E+04 </wgt>
  </rwgt>
  </event>
  <event>
  5      0 0.15478455E+04 0.22847778E+02 0.75467711E-02 0.13435303E+00
        2 -1    0    0  501    0 0.00000000E+00 0.00000000E+00 0.85659336E+02 0.85659934E+02 0.32000000E+00 0.0000E+00 0.9000E+01
       -2 -1    0    0    0  501 0.00000000E+00 0.00000000E+00 -.24515297E+02 0.24517385E+02 0.32000000E+00 0.0000E+00 0.9000E+01
       23  2    1    2    0    0 0.00000000E+00 0.00000000E+00 0.61144039E+02 0.11017732E+03 0.91653958E+02 0.0000E+00 0.0000E+00
      -11  1    3    3    0    0 0.30917577E+02 -.31339810E+01 0.71059697E+02 0.77557714E+02 0.51099893E-03 0.0000E+00 0.9000E+01
       11  1    3    3    0    0 -.30917577E+02 0.31339810E+01 -.99156580E+01 0.32619605E+02 0.51099893E-03 0.0000E+00 0.9000E+01
#aMCatNLO 1  0  0  2  1 0.17126773E+02 0.00000000E+00  9  5  0 0.00000000E+00 0.00000000E+00 0.00000000E+00 0.00000000E+00 0.00000000E+00
  <rwgt>
   <wgt id='1001'> 0.15479E+04 </wgt>
   <wgt id='1002'> 0.15172E+04 </wgt>
   <wgt id='1003'> 0.15855E+04 </wgt>
   <wgt id='1004'> 0.16617E+04 </wgt>
   <wgt id='1005'> 0.16345E+04 </wgt>
   <wgt id='1006'> 0.16946E+04 </wgt>
   <wgt id='1007'> 0.14405E+04 </wgt>
   <wgt id='1008'> 0.14033E+04 </wgt>
   <wgt id='1009'> 0.14869E+04 </wgt>
  </rwgt>
  </event>
  <event>
  5      0 0.15478455E+04 0.30000000E+02 0.75467711E-02 0.12481903E+00
        2 -1    0    0  501    0 0.00000000E+00 0.00000000E+00 0.93947056E+01 0.94001539E+01 0.32000000E+00 0.0000E+00 0.9000E+01
       -2 -1    0    0    0  501 0.00000000E+00 0.00000000E+00 -.12363459E+03 0.12363500E+03 0.32000000E+00 0.0000E+00 0.9000E+01
       23  2    1    2    0    0 0.00000000E+00 0.00000000E+00 -.11423988E+03 0.13303516E+03 0.68173323E+02 0.0000E+00 0.0000E+00
      -11  1    3    3    0    0 -.80197098E+01 -.25552390E+02 -.98269582E+02 0.10185358E+03 0.51099893E-03 0.0000E+00 0.9000E+01
       11  1    3    3    0    0 0.80197098E+01 0.25552390E+02 -.15970300E+02 0.31181579E+02 0.51099893E-03 0.0000E+00 0.9000E+01
#aMCatNLO 1  0  0  1  1 0.55966016E+02 0.00000000E+00  9  5  0 0.00000000E+00 0.00000000E+00 0.00000000E+00 0.00000000E+00 0.00000000E+00
  <rwgt>
   <wgt id='1001'> 0.15479E+04 </wgt>
   <wgt id='1002'> 0.14758E+04 </wgt>
   <wgt id='1003'> 0.16420E+04 </wgt>
   <wgt id='1004'> 0.11215E+04 </wgt>
   <wgt id='1005'> 0.11127E+04 </wgt>
   <wgt id='1006'> 0.11328E+04 </wgt>
   <wgt id='1007'> 0.18520E+04 </wgt>
   <wgt id='1008'> 0.17289E+04 </wgt>
   <wgt id='1009'> 0.20129E+04 </wgt>
  </rwgt>
  </event>
  <event>
  5      0 0.15478455E+04 0.43619886E+02 0.75467711E-02 0.13183400E+00
       -1 -1    0    0    0  501 0.00000000E+00 0.00000000E+00 0.25492485E+01 0.25692544E+01 0.32000000E+00 0.0000E+00 0.9000E+01
        1 -1    0    0  501    0 0.00000000E+00 0.00000000E+00 -.81384286E+03 0.81384292E+03 0.32000000E+00 0.0000E+00 0.9000E+01
       23  2    1    2    0    0 0.00000000E+00 0.00000000E+00 -.81129361E+03 0.81641217E+03 0.91277156E+02 0.0000E+00 0.0000E+00
      -11  1    3    3    0    0 0.35396288E+02 0.25491122E+02 -.52570922E+03 0.52751576E+03 0.51099893E-03 0.0000E+00 0.9000E+01
       11  1    3    3    0    0 -.35396288E+02 -.25491122E+02 -.28558439E+03 0.28889641E+03 0.51099893E-03 0.0000E+00 0.9000E+01
#aMCatNLO 1  0  0  2  1 0.37875235E+01 0.00000000E+00  9  5  0 0.00000000E+00 0.00000000E+00 0.00000000E+00 0.00000000E+00 0.00000000E+00
  <rwgt>
   <wgt id='1001'> 0.15479E+04 </wgt>
   <wgt id='1002'> 0.15443E+04 </wgt>
   <wgt id='1003'> 0.15524E+04 </wgt>
   <wgt id='1004'> 0.16478E+04 </wgt>
   <wgt id='1005'> 0.16457E+04 </wgt>
   <wgt id='1006'> 0.16504E+04 </wgt>
   <wgt id='1007'> 0.14218E+04 </wgt>
   <wgt id='1008'> 0.14168E+04 </wgt>
   <wgt id='1009'> 0.14279E+04 </wgt>
  </rwgt>
  </event>
  <event>
  5      0 -.15478455E+04 0.15761305E+02 0.75467711E-02 0.23329471E+00
       -1 -1    0    0    0  501 0.00000000E+00 0.00000000E+00 0.35423542E+02 0.35424987E+02 0.32000000E+00 0.0000E+00 0.9000E+01
        1 -1    0    0  501    0 0.00000000E+00 0.00000000E+00 -.59517770E+02 0.59518630E+02 0.32000000E+00 0.0000E+00 0.9000E+01
       23  2    1    2    0    0 0.00000000E+00 0.00000000E+00 -.24094228E+02 0.94943617E+02 0.91835498E+02 0.0000E+00 0.0000E+00
      -11  1    3    3    0    0 -.28442374E+01 0.23827757E+01 -.59363682E+02 0.59479527E+02 0.51099893E-03 0.0000E+00 0.9000E+01
       11  1    3    3    0    0 0.28442374E+01 -.23827757E+01 0.35269454E+02 0.35464091E+02 0.51099893E-03 0.0000E+00 0.9000E+01
#aMCatNLO 1  0  0  2  1 0.37875235E+01 0.00000000E+00  9  5  0 0.00000000E+00 0.00000000E+00 0.00000000E+00 0.00000000E+00 0.00000000E+00
  <rwgt>
   <wgt id='1001'> -.15479E+04 </wgt>
   <wgt id='1002'> -.12683E+04 </wgt>
   <wgt id='1003'> -.20435E+04 </wgt>
   <wgt id='1004'> -.20863E+04 </wgt>
   <wgt id='1005'> -.17095E+04 </wgt>
   <wgt id='1006'> -.27542E+04 </wgt>
   <wgt id='1007'> -.96598E+03 </wgt>
   <wgt id='1008'> -.79154E+03 </wgt>
   <wgt id='1009'> -.12753E+04 </wgt>
  </rwgt>
  </event>
  <event>
  6      0 0.15478455E+04 0.45015464E+02 0.75467711E-02 0.12202153E+00
       -1 -1    0    0    0  501 0.00000000E+00 0.00000000E+00 0.12008897E+02 0.12013159E+02 0.32000000E+00 0.0000E+00 0.9000E+01
       21 -1    0    0  501  502 0.00000000E+00 0.00000000E+00 -.45235594E+03 0.45235656E+03 0.75000000E+00 0.0000E+00 0.9000E+01
       23  2    1    2    0    0 0.44117955E+02 -.11774240E+02 -.28448534E+03 0.30195666E+03 0.90337667E+02 0.0000E+00 0.0000E+00
      -11  1    3    3    0    0 0.57632682E+02 0.24196700E+02 -.18707867E+03 0.19724461E+03 0.51099893E-03 0.0000E+00 0.9000E+01
       11  1    3    3    0    0 -.13514727E+02 -.35970940E+02 -.97406663E+02 0.10471205E+03 0.51099893E-03 0.0000E+00 0.9000E+01
       -1  1    1    2    0  502 -.44117955E+02 0.11774240E+02 -.15586171E+03 0.16241305E+03 0.32000000E+00 0.0000E+00 0.9000E+01
#aMCatNLO 2  0  0  2  1 0.45662093E+02 0.00000000E+00  9  5  0 0.00000000E+00 0.00000000E+00 0.00000000E+00 0.00000000E+00 0.00000000E+00
  <rwgt>
   <wgt id='1001'> 0.15479E+04 </wgt>
   <wgt id='1002'> 0.13970E+04 </wgt>
   <wgt id='1003'> 0.17363E+04 </wgt>
   <wgt id='1004'> 0.15389E+04 </wgt>
   <wgt id='1005'> 0.13889E+04 </wgt>
   <wgt id='1006'> 0.17263E+04 </wgt>
   <wgt id='1007'> 0.15454E+04 </wgt>
   <wgt id='1008'> 0.13948E+04 </wgt>
   <wgt id='1009'> 0.17336E+04 </wgt>
  </rwgt>
  </event>
  <event>
  5      0 -.15478455E+04 0.18797475E+02 0.75467711E-02 0.12988918E+00
        3 -1    0    0  501    0 0.00000000E+00 0.00000000E+00 0.18166798E+01 0.18842307E+01 0.50000000E+00 0.0000E+00 0.9000E+01
       -3 -1    0    0    0  501 0.00000000E+00 0.00000000E+00 -.11492246E+04 0.11492247E+04 0.50000000E+00 0.0000E+00 0.9000E+01
       23  2    1    2    0    0 0.00000000E+00 0.00000000E+00 -.11474079E+04 0.11511089E+04 0.92232612E+02 0.0000E+00 0.0000E+00
      -11  1    3    3    0    0 0.55021172E+01 0.36303824E+02 -.92192386E+03 0.92265478E+03 0.51099893E-03 0.0000E+00 0.9000E+01
       11  1    3    3    0    0 -.55021172E+01 -.36303824E+02 -.22548402E+03 0.22845412E+03 0.51099893E-03 0.0000E+00 0.9000E+01
#aMCatNLO 1  0  0  1  2 0.22765358E+02 0.00000000E+00  9  5  0 0.00000000E+00 0.00000000E+00 0.00000000E+00 0.00000000E+00 0.00000000E+00
  <rwgt>
   <wgt id='1001'> -.15478E+04 </wgt>
   <wgt id='1002'> -.13530E+04 </wgt>
   <wgt id='1003'> -.18024E+04 </wgt>
   <wgt id='1004'> -.15844E+04 </wgt>
   <wgt id='1005'> -.13847E+04 </wgt>
   <wgt id='1006'> -.18453E+04 </wgt>
   <wgt id='1007'> -.14800E+04 </wgt>
   <wgt id='1008'> -.12939E+04 </wgt>
   <wgt id='1009'> -.17235E+04 </wgt>
  </rwgt>
  </event>
  <event>
  6      0 0.15478455E+04 0.36691031E+02 0.75467711E-02 0.12125429E+00
        2 -1    0    0  501    0 0.00000000E+00 0.00000000E+00 0.17334386E+03 0.17334415E+03 0.32000000E+00 0.0000E+00 0.9000E+01
       21 -1    0    0  502  501 0.00000000E+00 0.00000000E+00 -.87525589E+02 0.87528802E+02 0.75000000E+00 0.0000E+00 0.9000E+01
       23  2    1    2    0    0 0.56641094E+02 -.24685540E+02 0.14247668E+03 0.17704058E+03 0.85006885E+02 0.0000E+00 0.0000E+00
      -11  1    3    3    0    0 -.11118243E+02 0.98170071E+01 -.78241801E+00 0.14852648E+02 0.51099893E-03 0.0000E+00 0.9000E+01
       11  1    3    3    0    0 0.67759338E+02 -.34502547E+02 0.14325910E+03 0.16218793E+03 0.51099893E-03 0.0000E+00 0.9000E+01
        2  1    1    2  502    0 -.56641094E+02 0.24685540E+02 -.56658416E+02 0.83832380E+02 0.32000000E+00 0.0000E+00 0.9000E+01
#aMCatNLO 2  0  0  2  2 0.61786645E+02 0.00000000E+00  9  5  0 0.00000000E+00 0.00000000E+00 0.00000000E+00 0.00000000E+00 0.00000000E+00
  <rwgt>
   <wgt id='1001'> 0.15479E+04 </wgt>
   <wgt id='1002'> 0.13979E+04 </wgt>
   <wgt id='1003'> 0.17349E+04 </wgt>
   <wgt id='1004'> 0.15354E+04 </wgt>
   <wgt id='1005'> 0.13866E+04 </wgt>
   <wgt id='1006'> 0.17209E+04 </wgt>
   <wgt id='1007'> 0.15463E+04 </wgt>
   <wgt id='1008'> 0.13965E+04 </wgt>
   <wgt id='1009'> 0.17332E+04 </wgt>
  </rwgt>
  </event>
  <event>
  4      0 0.15478455E+04 0.26033993E+02 0.75467711E-02 0.15006518E+00
        2 -1    0    0  501    0 0.00000000E+00 0.00000000E+00 0.20645889E+03 0.20645914E+03 0.32000000E+00 0.0000E+00 0.9000E+01
       -2 -1    0    0    0  501 0.00000000E+00 0.00000000E+00 -.11158329E+01 0.11608113E+01 0.32000000E+00 0.0000E+00 0.9000E+01
      -11  1    1    2    0    0 0.11609979E+02 0.85727102E+01 0.13771353E+03 0.13846768E+03 0.51099893E-03 0.0000E+00 0.9000E+01
       11  1    1    2    0    0 -.11609979E+02 -.85727102E+01 0.67629528E+02 0.69152267E+02 0.51099893E-03 0.0000E+00 0.9000E+01
#aMCatNLO 1  0  0  1  2 0.13096718E+02 0.00000000E+00  9  5  0 0.00000000E+00 0.00000000E+00 0.00000000E+00 0.00000000E+00 0.00000000E+00
  <rwgt>
   <wgt id='1001'> 0.15478E+04 </wgt>
   <wgt id='1002'> 0.14962E+04 </wgt>
   <wgt id='1003'> 0.16142E+04 </wgt>
   <wgt id='1004'> 0.12094E+04 </wgt>
   <wgt id='1005'> 0.12367E+04 </wgt>
   <wgt id='1006'> 0.11676E+04 </wgt>
   <wgt id='1007'> 0.16561E+04 </wgt>
   <wgt id='1008'> 0.15548E+04 </wgt>
   <wgt id='1009'> 0.17906E+04 </wgt>
  </rwgt>
  </event>
  <event>
  6      0 0.15478455E+04 0.42209824E+02 0.75467711E-02 0.12232247E+00
       21 -1    0    0  501  502 0.00000000E+00 0.00000000E+00 0.41663567E+02 0.41670317E+02 0.75000000E+00 0.0000E+00 0.9000E+01
       -2 -1    0    0    0  501 0.00000000E+00 0.00000000E+00 -.13329848E+03 0.13329887E+03 0.32000000E+00 0.0000E+00 0.9000E+01
       23  2    1    2    0    0 0.21278378E+02 0.42476525E+02 -.45782896E+02 0.10894241E+03 0.86691125E+02 0.0000E+00 0.0000E+00
      -11  1    3    3    0    0 -.15579698E+02 0.55545845E+02 -.16241693E+02 0.59932132E+02 0.51099893E-03 0.0000E+00 0.9000E+01
       11  1    3    3    0    0 0.36858076E+02 -.13069320E+02 -.29541203E+02 0.49010280E+02 0.51099893E-03 0.0000E+00 0.9000E+01
       -2  1    1    2    0  502 -.21278378E+02 -.42476525E+02 -.45852020E+02 0.66026772E+02 0.32000000E+00 0.0000E+00 0.9000E+01
#aMCatNLO 2  0  0  1  2 0.47508152E+02 0.00000000E+00  9  5  0 0.00000000E+00 0.00000000E+00 0.00000000E+00 0.00000000E+00 0.00000000E+00
  <rwgt>
   <wgt id='1001'> 0.15479E+04 </wgt>
   <wgt id='1002'> 0.13966E+04 </wgt>
   <wgt id='1003'> 0.17369E+04 </wgt>
   <wgt id='1004'> 0.15914E+04 </wgt>
   <wgt id='1005'> 0.14360E+04 </wgt>
   <wgt id='1006'> 0.17857E+04 </wgt>
   <wgt id='1007'> 0.14783E+04 </wgt>
   <wgt id='1008'> 0.13339E+04 </wgt>
   <wgt id='1009'> 0.16589E+04 </wgt>
  </rwgt>
  </event>
  <event>
  6      0 -.15478455E+04 0.30000000E+02 0.75467711E-02 0.14936631E+00
       -1 -1    0    0    0  501 0.00000000E+00 0.00000000E+00 0.78906880E+02 0.78907529E+02 0.32000000E+00 0.0000E+00 0.9000E+01
        1 -1    0    0  502    0 0.00000000E+00 0.00000000E+00 -.36535018E+02 0.36536420E+02 0.32000000E+00 0.0000E+00 0.9000E+01
       23  2    1    2    0    0 0.10059811E+02 -.96122730E+01 0.44436995E+02 0.10135768E+03 0.90028538E+02 0.0000E+00 0.0000E+00
      -11  1    3    3    0    0 0.16203890E+01 0.10137830E+02 -.25875632E+02 0.27837917E+02 0.51099893E-03 0.0000E+00 0.9000E+01
       11  1    3    3    0    0 0.84394224E+01 -.19750103E+02 0.70312628E+02 0.73519766E+02 0.51099893E-03 0.0000E+00 0.9000E+01
       21  1    1    2  502  501 -.10059811E+02 0.96122730E+01 -.20651342E+01 0.14086266E+02 0.75000000E+00 0.0000E+00 0.9000E+01
#aMCatNLO 2  0  0  2  1 0.13913864E+02 0.00000000E+00  9  5  0 0.00000000E+00 0.00000000E+00 0.00000000E+00 0.00000000E+00 0.00000000E+00
  <rwgt>
   <wgt id='1001'> -.15479E+04 </wgt>
   <wgt id='1002'> -.13657E+04 </wgt>
   <wgt id='1003'> -.17883E+04 </wgt>
   <wgt id='1004'> -.18786E+04 </wgt>
   <wgt id='1005'> -.16575E+04 </wgt>
   <wgt id='1006'> -.21705E+04 </wgt>
   <wgt id='1007'> -.11948E+04 </wgt>
   <wgt id='1008'> -.10541E+04 </wgt>
   <wgt id='1009'> -.13804E+04 </wgt>
  </rwgt>
  </event>
  <event>
  5      0 0.15478455E+04 0.31337695E+02 0.75467711E-02 0.12656537E+00
        2 -1    0    0  501    0 0.00000000E+00 0.00000000E+00 0.76505300E+01 0.76572194E+01 0.32000000E+00 0.0000E+00 0.9000E+01
       -2 -1    0    0    0  501 0.00000000E+00 0.00000000E+00 -.28452402E+03 0.28452420E+03 0.32000000E+00 0.0000E+00 0.9000E+01
       23  2    1    2    0    0 0.00000000E+00 0.00000000E+00 -.27687349E+03 0.29218142E+03 0.93333018E+02 0.0000E+00 0.0000E+00
      -11  1    3    3    0    0 0.24767108E+02 -.19200038E+02 -.24668741E+03 0.24866992E+03 0.51099893E-03 0.0000E+00 0.9000E+01
       11  1    3    3    0    0 -.24767108E+02 0.19200038E+02 -.30186081E+02 0.43511500E+02 0.51099893E-03 0.0000E+00 0.9000E+01
#aMCatNLO 1  0  0  2  2 0.43869601E+02 0.00000000E+00  9  5  0 0.00000000E+00 0.00000000E+00 0.00000000E+00 0.00000000E+00 0.00000000E+00
  <rwgt>
   <wgt id='1001'> 0.15479E+04 </wgt>
   <wgt id='1002'> 0.15567E+04 </wgt>
   <wgt id='1003'> 0.15365E+04 </wgt>
   <wgt id='1004'> 0.15865E+04 </wgt>
   <wgt id='1005'> 0.16078E+04 </wgt>
   <wgt id='1006'> 0.15591E+04 </wgt>
   <wgt id='1007'> 0.14753E+04 </wgt>
   <wgt id='1008'> 0.14721E+04 </wgt>
   <wgt id='1009'> 0.14794E+04 </wgt>
  </rwgt>
  </event>
  <event>
  6      0 0.15478455E+04 0.30000000E+02 0.75467711E-02 0.14236656E+00
       -4 -1    0    0    0  502 0.00000000E+00 0.00000000E+00 0.50279276E+02 0.50303162E+02 0.15500000E+01 0.0000E+00 0.9000E+01
        4 -1    0    0  501    0 0.00000000E+00 0.00000000E+00 -.55973051E+02 0.55994508E+02 0.15500000E+01 0.0000E+00 0.9000E+01
       23  2    1    2    0    0 0.64764652E+01 -.11510456E+02 -.29658313E+01 0.92790658E+02 0.91798011E+02 0.0000E+00 0.0000E+00
      -11  1    3    3    0    0 0.13703241E+02 0.13760731E+02 0.38830906E+02 0.43416308E+02 0.51099893E-03 0.0000E+00 0.9000E+01
       11  1    3    3    0    0 -.72267755E+01 -.25271187E+02 -.41796738E+02 0.49374350E+02 0.51099893E-03 0.0000E+00 0.9000E+01
       21  1    1    2  501  502 -.64764652E+01 0.11510456E+02 -.27279441E+01 0.13507012E+02 0.75000000E+00 0.0000E+00 0.9000E+01
#aMCatNLO 2  0  0  1  1 0.13207391E+02 0.00000000E+00  9  5  0 0.00000000E+00 0.00000000E+00 0.00000000E+00 0.00000000E+00 0.00000000E+00
  <rwgt>
   <wgt id='1001'> 0.15479E+04 </wgt>
   <wgt id='1002'> 0.13736E+04 </wgt>
   <wgt id='1003'> 0.17745E+04 </wgt>
   <wgt id='1004'> 0.19268E+04 </wgt>
   <wgt id='1005'> 0.17098E+04 </wgt>
   <wgt id='1006'> 0.22090E+04 </wgt>
   <wgt id='1007'> 0.11349E+04 </wgt>
   <wgt id='1008'> 0.10071E+04 </wgt>
   <wgt id='1009'> 0.13011E+04 </wgt>
  </rwgt>
  </event>
  <event>
  5      0 0.15478455E+04 0.35592125E+02 0.75467711E-02 0.11599891E+00
       -2 -1    0    0    0  501 0.00000000E+00 0.00000000E+00 0.38249075E+01 0.38382701E+01 0.32000000E+00 0.0000E+00 0.9000E+01
        2 -1    0    0  501    0 0.00000000E+00 0.00000000E+00 -.54083699E+03 0.54083708E+03 0.32000000E+00 0.0000E+00 0.9000E+01
       23  2    1    2    0    0 0.00000000E+00 0.00000000E+00 -.53701208E+03 0.54467535E+03 0.91045403E+02 0.0000E+00 0.0000E+00
      -11  1    3    3    0    0 -.13006395E+02 0.33130546E+02 -.98714111E+02 0.10493462E+03 0.51099893E-03 0.0000E+00 0.9000E+01
       11  1    3    3    0    0 0.13006395E+02 -.33130546E+02 -.43829797E+03 0.43974073E+03 0.51099893E-03 0.0000E+00 0.9000E+01
#aMCatNLO 1  0  0  1  1 0.89959950E+02 0.00000000E+00  9  5  0 0.00000000E+00 0.00000000E+00 0.00000000E+00 0.00000000E+00 0.00000000E+00
  <rwgt>
   <wgt id='1001'> 0.15479E+04 </wgt>
   <wgt id='1002'> 0.14859E+04 </wgt>
   <wgt id='1003'> 0.16276E+04 </wgt>
   <wgt id='1004'> 0.12790E+04 </wgt>
   <wgt id='1005'> 0.12578E+04 </wgt>
   <wgt id='1006'> 0.13064E+04 </wgt>
   <wgt id='1007'> 0.17545E+04 </wgt>
   <wgt id='1008'> 0.16571E+04 </wgt>
   <wgt id='1009'> 0.18801E+04 </wgt>
  </rwgt>
  </event>
  <event>
  5      0 0.15478455E+04 0.36480910E+02 0.75467711E-02 0.13108021E+00
        1 -1    0    0  501    0 0.00000000E+00 0.00000000E+00 0.10852975E+02 0.10857691E+02 0.32000000E+00 0.0000E+00 0.9000E+01
       -1 -1    0    0    0  501 0.00000000E+00 0.00000000E+00 -.19694166E+03 0.19694192E+03 0.32000000E+00 0.0000E+00 0.9000E+01
       23  2    1    2    0    0 0.00000000E+00 0.00000000E+00 -.18608869E+03 0.20779962E+03 0.92475293E+02 0.0000E+00 0.0000E+00
      -11  1    3    3    0    0 -.35259706E+02 0.93600172E+01 -.29207299E+02 0.46732464E+02 0.51099893E-03 0.0000E+00 0.9000E+01
       11  1    3    3    0    0 0.35259706E+02 -.93600172E+01 -.15688139E+03 0.16106715E+03 0.51099893E-03 0.0000E+00 0.9000E+01
#aMCatNLO 1  0  0  2  1 0.19026559E+02 0.00000000E+00  9  5  0 0.00000000E+00 0.00000000E+00 0.00000000E+00 0.00000000E+00 0.00000000E+00
  <rwgt>
   <wgt id='1001'> 0.15478E+04 </wgt>
   <wgt id='1002'> 0.15633E+04 </wgt>
   <wgt id='1003'> 0.15279E+04 </wgt>
   <wgt id='1004'> 0.16890E+04 </wgt>
   <wgt id='1005'> 0.17079E+04 </wgt>
   <wgt id='1006'> 0.16646E+04 </wgt>
   <wgt id='1007'> 0.13753E+04 </wgt>
   <wgt id='1008'> 0.13874E+04 </wgt>
   <wgt id='1009'> 0.13596E+04 </wgt>
  </rwgt>
  </event>
  <event>
  5      0 0.15478455E+04 0.33058625E+02 0.75467711E-02 0.11949429E+00
       -1 -1    0    0    0  501 0.00000000E+00 0.00000000E+00 0.52558884E+01 0.52656208E+01 0.32000000E+00 0.0000E+00 0.9000E+01
        1 -1    0    0  501    0 0.00000000E+00 0.00000000E+00 -.37214876E+03 0.37214890E+03 0.32000000E+00 0.0000E+00 0.9000E+01
       23  2    1    2    0    0 0.00000000E+00 0.00000000E+00 -.36689287E+03 0.37741452E+03 0.88494856E+02 0.0000E+00 0.0000E+00
      -11  1    3    3    0    0 -.32848217E+02 -.37238899E+01 -.58017097E+02 0.66774668E+02 0.51099893E-03 0.0000E+00 0.9000E+01
       11  1    3    3    0    0 0.32848217E+02 0.37238899E+01 -.30887577E+03 0.31063985E+03 0.51099893E-03 0.0000E+00 0.9000E+01
#aMCatNLO 1  0  0  2  2 0.71464358E+02 0.00000000E+00  9  5  0 0.00000000E+00 0.00000000E+00 0.00000000E+00 0.00000000E+00 0.00000000E+00
  <rwgt>
   <wgt id='1001'> 0.15479E+04 </wgt>
   <wgt id='1002'> 0.15388E+04 </wgt>
   <wgt id='1003'> 0.15596E+04 </wgt>
   <wgt id='1004'> 0.15650E+04 </wgt>
   <wgt id='1005'> 0.15711E+04 </wgt>
   <wgt id='1006'> 0.15572E+04 </wgt>
   <wgt id='1007'> 0.14955E+04 </wgt>
   <wgt id='1008'> 0.14725E+04 </wgt>
   <wgt id='1009'> 0.15251E+04 </wgt>
  </rwgt>
  </event>
  <event>
  5      0 -.15478455E+04 0.30883798E+02 0.75467711E-02 0.13440135E+00
        2 -1    0    0  501    0 0.00000000E+00 0.00000000E+00 0.14106733E+04 0.14106733E+04 0.32000000E+00 0.0000E+00 0.9000E+01
       -2 -1    0    0    0  501 0.00000000E+00 0.00000000E+00 -.15534886E+01 0.15861043E+01 0.32000000E+00 0.0000E+00 0.9000E+01
       23  2    1    2    0    0 0.00000000E+00 0.00000000E+00 0.14091198E+04 0.14122594E+04 0.94117398E+02 0.0000E+00 0.0000E+00
      -11  1    3    3    0    0 0.37224494E+02 0.12620337E+02 0.31627765E+03 0.31871067E+03 0.51099893E-03 0.0000E+00 0.9000E+01
       11  1    3    3    0    0 -.37224494E+02 -.12620337E+02 0.10928421E+04 0.10935488E+04 0.51099893E-03 0.0000E+00 0.9000E+01
#aMCatNLO 1  0  0  2  1 0.27328866E+01 0.00000000E+00  9  5  0 0.00000000E+00 0.00000000E+00 0.00000000E+00 0.00000000E+00 0.00000000E+00
  <rwgt>
   <wgt id='1001'> -.15479E+04 </wgt>
   <wgt id='1002'> -.11568E+04 </wgt>
   <wgt id='1003'> -.20516E+04 </wgt>
   <wgt id='1004'> -.29682E+04 </wgt>
   <wgt id='1005'> -.24109E+04 </wgt>
   <wgt id='1006'> -.36854E+04 </wgt>
   <wgt id='1007'> -.22423E+03 </wgt>
   <wgt id='1008'> 0.70601E+01 </wgt>
   <wgt id='1009'> -.52293E+03 </wgt>
  </rwgt>
  </event>
  <event>
  5      0 0.15478455E+04 0.22863837E+02 0.75467711E-02 0.13108116E+00
       -2 -1    0    0    0  501 0.00000000E+00 0.00000000E+00 0.19352656E+01 0.19615435E+01 0.32000000E+00 0.0000E+00 0.9000E+01
        2 -1    0    0  501    0 0.00000000E+00 0.00000000E+00 -.10646497E+04 0.10646498E+04 0.32000000E+00 0.0000E+00 0.9000E+01
       23  2    1    2    0    0 0.00000000E+00 0.00000000E+00 -.10627145E+04 0.10666113E+04 0.91091595E+02 0.0000E+00 0.0000E+00
      -11  1    3    3    0    0 -.43939783E+02 -.11938283E+02 -.51857039E+03 0.52056553E+03 0.51099893E-03 0.0000E+00 0.9000E+01
       11  1    3    3    0    0 0.43939783E+02 0.11938283E+02 -.54414408E+03 0.54604580E+03 0.51099893E-03 0.0000E+00 0.9000E+01
#aMCatNLO 1  0  0  2  1 0.31258401E+01 0.00000000E+00  9  5  0 0.00000000E+00 0.00000000E+00 0.00000000E+00 0.00000000E+00 0.00000000E+00
  <rwgt>
   <wgt id='1001'> 0.15479E+04 </wgt>
   <wgt id='1002'> 0.14592E+04 </wgt>
   <wgt id='1003'> 0.16594E+04 </wgt>
   <wgt id='1004'> 0.20783E+04 </wgt>
   <wgt id='1005'> 0.19397E+04 </wgt>
   <wgt id='1006'> 0.22533E+04 </wgt>
   <wgt id='1007'> 0.10813E+04 </wgt>
   <wgt id='1008'> 0.10348E+04 </wgt>
   <wgt id='1009'> 0.11393E+04 </wgt>
  </rwgt>
  </event>
  <event>
  6      0 0.15478455E+04 0.30000000E+02 0.75467711E-02 0.13642948E+00
       21 -1    0    0  502  501 0.00000000E+00 0.00000000E+00 0.98027420E+01 0.98313911E+01 0.75000000E+00 0.0000E+00 0.9000E+01
        2 -1    0    0  501    0 0.00000000E+00 0.00000000E+00 -.23324571E+04 0.23324571E+04 0.32000000E+00 0.0000E+00 0.9000E+01
       23  2    1    2    0    0 -.26014805E+02 -.20264888E+02 -.23002829E+04 0.23024385E+04 0.93991110E+02 0.0000E+00 0.0000E+00
      -11  1    3    3    0    0 -.57631738E+01 0.61470911E+01 -.20423266E+04 0.20423439E+04 0.51099893E-03 0.0000E+00 0.9000E+01
       11  1    3    3    0    0 -.20251631E+02 -.26411979E+02 -.25795634E+03 0.26009459E+03 0.51099893E-03 0.0000E+00 0.9000E+01
        2  1    1    2  502    0 0.26014805E+02 0.20264888E+02 -.22371434E+02 0.39849959E+02 0.32000000E+00 0.0000E+00 0.9000E+01
#aMCatNLO 2  0  0  1  1 0.32976291E+02 0.00000000E+00  9  5  0 0.00000000E+00 0.00000000E+00 0.00000000E+00 0.00000000E+00 0.00000000E+00
  <rwgt>
   <wgt id='1001'> 0.15479E+04 </wgt>
   <wgt id='1002'> 0.13804E+04 </wgt>
   <wgt id='1003'> 0.17631E+04 </wgt>
   <wgt id='1004'> 0.14534E+04 </wgt>
   <wgt id='1005'> 0.12961E+04 </wgt>
   <wgt id='1006'> 0.16556E+04 </wgt>
   <wgt id='1007'> 0.16272E+04 </wgt>
   <wgt id='1008'> 0.14512E+04 </wgt>
   <wgt id='1009'> 0.18537E+04 </wgt>
  </rwgt>
  </event>
  <event>
  5      0 0.15478455E+04 0.31778598E+02 0.75467711E-02 0.11649771E+00
       -2 -1    0    0    0  501 0.00000000E+00 0.00000000E+00 0.47630028E+01 0.47737402E+01 0.32000000E+00 0.0000E+00 0.9000E+01
        2 -1    0    0  501    0 0.00000000E+00 0.00000000E+00 -.45432695E+03 0.45432707E+03 0.32000000E+00 0.0000E+00 0.9000E+01
       23  2    1    2    0    0 0.00000000E+00 0.00000000E+00 -.44956395E+03 0.45910081E+03 0.93090304E+02 0.0000E+00 0.0000E+00
      -11  1    3    3    0    0 0.31092118E+02 -.65695866E+01 -.39250393E+03 0.39378829E+03 0.51099893E-03 0.0000E+00 0.9000E+01
       11  1    3    3    0    0 -.31092118E+02 0.65695866E+01 -.57060016E+02 0.65312516E+02 0.51099893E-03 0.0000E+00 0.9000E+01
#aMCatNLO 1  0  0  1  1 0.91969719E+02 0.00000000E+00  9  5  0 0.00000000E+00 0.00000000E+00 0.00000000E+00 0.00000000E+00 0.00000000E+00
  <rwgt>
   <wgt id='1001'> 0.15479E+04 </wgt>
   <wgt id='1002'> 0.15493E+04 </wgt>
   <wgt id='1003'> 0.15460E+04 </wgt>
   <wgt id='1004'> 0.17036E+04 </wgt>
   <wgt id='1005'> 0.17070E+04 </wgt>
   <wgt id='1006'> 0.16993E+04 </wgt>
   <wgt id='1007'> 0.13644E+04 </wgt>
   <wgt id='1008'> 0.13642E+04 </wgt>
   <wgt id='1009'> 0.13646E+04 </wgt>
  </rwgt>
  </event>
  <event>
  5      0 0.15478455E+04 0.30000000E+02 0.75467711E-02 0.11057870E+00
       -3 -1    0    0    0  501 0.00000000E+00 0.00000000E+00 0.51554037E+02 0.51556462E+02 0.50000000E+00 0.0000E+00 0.9000E+01
        3 -1    0    0  501    0 0.00000000E+00 0.00000000E+00 -.38655181E+02 0.38658415E+02 0.50000000E+00 0.0000E+00 0.9000E+01
       23  2    1    2    0    0 0.00000000E+00 0.00000000E+00 0.12898856E+02 0.90214877E+02 0.89287981E+02 0.0000E+00 0.0000E+00
      -11  1    3    3    0    0 -.20044140E+02 0.14868982E+02 0.43850338E+02 0.50454993E+02 0.51099893E-03 0.0000E+00 0.9000E+01
       11  1    3    3    0    0 0.20044140E+02 -.14868982E+02 -.30951482E+02 0.39759884E+02 0.51099893E-03 0.0000E+00 0.9000E+01
#aMCatNLO 1  0  0  1  1 0.14184831E+03 0.00000000E+00  9  5  0 0.00000000E+00 0.00000000E+00 0.00000000E+00 0.00000000E+00 0.00000000E+00
  <rwgt>
   <wgt id='1001'> 0.15479E+04 </wgt>
   <wgt id='1002'> 0.15175E+04 </wgt>
   <wgt id='1003'> 0.15876E+04 </wgt>
   <wgt id='1004'> 0.16393E+04 </wgt>
   <wgt id='1005'> 0.16234E+04 </wgt>
   <wgt id='1006'> 0.16603E+04 </wgt>
   <wgt id='1007'> 0.14226E+04 </wgt>
   <wgt id='1008'> 0.13785E+04 </wgt>
   <wgt id='1009'> 0.14803E+04 </wgt>
  </rwgt>
  </event>
  <event>
  5      0 0.15478455E+04 0.41747277E+02 0.75467711E-02 0.13217642E+00
        2 -1    0    0  501    0 0.00000000E+00 0.00000000E+00 0.58048722E+03 0.58048731E+03 0.32000000E+00 0.0000E+00 0.9000E+01
       -2 -1    0    0    0  501 0.00000000E+00 0.00000000E+00 -.36169723E+01 0.36311002E+01 0.32000000E+00 0.0000E+00 0.9000E+01
       23  2    1    2    0    0 0.00000000E+00 0.00000000E+00 0.57687025E+03 0.58411841E+03 0.91733486E+02 0.0000E+00 0.0000E+00
      -11  1    3    3    0    0 0.55218612E+01 -.41380481E+02 0.16746440E+03 0.17258958E+03 0.51099893E-03 0.0000E+00 0.9000E+01
       11  1    3    3    0    0 -.55218612E+01 0.41380481E+02 0.40940584E+03 0.41152883E+03 0.51099893E-03 0.0000E+00 0.9000E+01
#aMCatNLO 1  0  0  1  1 0.60252805E+01 0.00000000E+00  9  5  0 0.00000000E+00 0.00000000E+00 0.00000000E+00 0.00000000E+00 0.00000000E+00
  <rwgt>
   <wgt id='1001'> 0.15479E+04 </wgt>
   <wgt id='1002'> 0.15464E+04 </wgt>
   <wgt id='1003'> 0.15498E+04 </wgt>
   <wgt id='1004'> 0.16849E+04 </wgt>
   <wgt id='1005'> 0.16849E+04 </wgt>
   <wgt id='1006'> 0.16849E+04 </wgt>
   <wgt id='1007'> 0.13852E+04 </wgt>
   <wgt id='1008'> 0.13825E+04 </wgt>
   <wgt id='1009'> 0.13887E+04 </wgt>
  </rwgt>
  </event>
  <event>
  6      0 0.15478455E+04 0.30000000E+02 0.75467711E-02 0.13922758E+00
       -2 -1    0    0    0  502 0.00000000E+00 0.00000000E+00 0.24482441E+03 0.24482462E+03 0.32000000E+00 0.0000E+00 0.9000E+01
        2 -1    0    0  501    0 0.00000000E+00 0.00000000E+00 -.15409151E+02 0.15412473E+02 0.32000000E+00 0.0000E+00 0.9000E+01
       23  2    1    2    0    0 0.68881228E+01 -.13645688E+02 0.22671036E+03 0.24469586E+03 0.90801020E+02 0.0000E+00 0.0000E+00
      -11  1    3    3    0    0 -.10929568E+02 -.26955229E+02 0.16758049E+02 0.33568915E+02 0.51099893E-03 0.0000E+00 0.9000E+01
       11  1    3    3    0    0 0.17817691E+02 0.13309541E+02 0.20995231E+03 0.21112694E+03 0.51099893E-03 0.0000E+00 0.9000E+01
       21  1    1    2  501  502 -.68881228E+01 0.13645688E+02 0.27049036E+01 0.15541237E+02 0.75000000E+00 0.0000E+00 0.9000E+01
#aMCatNLO 2  0  0  1  1 0.15285648E+02 0.00000000E+00  9  5  0 0.00000000E+00 0.00000000E+00 0.00000000E+00 0.00000000E+00 0.00000000E+00
  <rwgt>
   <wgt id='1001'> 0.15479E+04 </wgt>
   <wgt id='1002'> 0.13772E+04 </wgt>
   <wgt id='1003'> 0.17685E+04 </wgt>
   <wgt id='1004'> 0.16615E+04 </wgt>
   <wgt id='1005'> 0.14782E+04 </wgt>
   <wgt id='1006'> 0.18983E+04 </wgt>
   <wgt id='1007'> 0.14062E+04 </wgt>
   <wgt id='1008'> 0.12511E+04 </wgt>
   <wgt id='1009'> 0.16066E+04 </wgt>
  </rwgt>
  </event>
  <event>
  5      0 0.15478455E+04 0.22361862E+02 0.75467711E-02 0.13766235E+00
        1 -1    0    0  501    0 0.00000000E+00 0.00000000E+00 0.85994244E+01 0.86053762E+01 0.32000000E+00 0.0000E+00 0.9000E+01
       -1 -1    0    0    0  501 0.00000000E+00 0.00000000E+00 -.26248198E+03 0.26248217E+03 0.32000000E+00 0.0000E+00 0.9000E+01
       23  2    1    2    0    0 0.00000000E+00 0.00000000E+00 -.25388255E+03 0.27108755E+03 0.95037405E+02 0.0000E+00 0.0000E+00
      -11  1    3    3    0    0 -.26298101E+02 0.20476413E+02 -.22355210E+03 0.22602304E+03 0.51099893E-03 0.0000E+00 0.9000E+01
       11  1    3    3    0    0 0.26298101E+02 -.20476413E+02 -.30330457E+02 0.45064511E+02 0.51099893E-03 0.0000E+00 0.9000E+01
#aMCatNLO 1  0  0  2  1 0.42210734E+01 0.00000000E+00  9  5  0 0.00000000E+00 0.00000000E+00 0.00000000E+00 0.00000000E+00 0.00000000E+00
  <rwgt>
   <wgt id='1001'> 0.15478E+04 </wgt>
   <wgt id='1002'> 0.15097E+04 </wgt>
   <wgt id='1003'> 0.15930E+04 </wgt>
   <wgt id='1004'> 0.19087E+04 </wgt>
   <wgt id='1005'> 0.18437E+04 </wgt>
   <wgt id='1006'> 0.19882E+04 </wgt>
   <wgt id='1007'> 0.12694E+04 </wgt>
   <wgt id='1008'> 0.12465E+04 </wgt>
   <wgt id='1009'> 0.12952E+04 </wgt>
  </rwgt>
  </event>
  <event>
  5      0 0.15478455E+04 0.21616935E+02 0.75467711E-02 0.13864727E+00
        3 -1    0    0  501    0 0.00000000E+00 0.00000000E+00 0.18882331E+03 0.18882397E+03 0.50000000E+00 0.0000E+00 0.9000E+01
       -3 -1    0    0    0  501 0.00000000E+00 0.00000000E+00 -.11058747E+02 0.11070044E+02 0.50000000E+00 0.0000E+00 0.9000E+01
       23  2    1    2    0    0 0.00000000E+00 0.00000000E+00 0.17776456E+03 0.19989401E+03 0.91418695E+02 0.0000E+00 0.0000E+00
      -11  1    3    3    0    0 -.20465720E+01 -.26199863E+02 0.71053774E+01 0.27223292E+02 0.51099893E-03 0.0000E+00 0.9000E+01
       11  1    3    3    0    0 0.20465720E+01 0.26199863E+02 0.17065918E+03 0.17267072E+03 0.51099893E-03 0.0000E+00 0.9000E+01
#aMCatNLO 1  0  0  2  1 0.13934908E+02 0.00000000E+00  9  5  0 0.00000000E+00 0.00000000E+00 0.00000000E+00 0.00000000E+00 0.00000000E+00
  <rwgt>
   <wgt id='1001'> 0.15478E+04 </wgt>
   <wgt id='1002'> 0.15052E+04 </wgt>
   <wgt id='1003'> 0.15991E+04 </wgt>
   <wgt id='1004'> 0.15320E+04 </wgt>
   <wgt id='1005'> 0.15108E+04 </wgt>
   <wgt id='1006'> 0.15546E+04 </wgt>
   <wgt id='1007'> 0.15235E+04 </wgt>
   <wgt id='1008'> 0.14609E+04 </wgt>
   <wgt id='1009'> 0.16014E+04 </wgt>
  </rwgt>
  </event>
  <event>
  5      0 0.15478455E+04 0.42528336E+02 0.75467711E-02 0.10857546E+00
        1 -1    0    0  501    0 0.00000000E+00 0.00000000E+00 0.12244877E+04 0.12244877E+04 0.32000000E+00 0.0000E+00 0.9000E+01
       -1 -1    0    0    0  501 0.00000000E+00 0.00000000E+00 -.16855437E+01 0.17156508E+01 0.32000000E+00 0.0000E+00 0.9000E+01
       23  2    1    2    0    0 0.00000000E+00 0.00000000E+00 0.12228021E+04 0.12262034E+04 0.91266896E+02 0.0000E+00 0.0000E+00
      -11  1    3    3    0    0 -.15046716E+02 0.39777578E+02 0.38910692E+03 0.39142414E+03 0.51099893E-03 0.0000E+00 0.9000E+01
       11  1    3    3    0    0 0.15046716E+02 -.39777578E+02 0.83369520E+03 0.83477922E+03 0.51099893E-03 0.0000E+00 0.9000E+01
#aMCatNLO 1  0  0  1  1 0.15564963E+03 0.00000000E+00  9  5  0 0.00000000E+00 0.00000000E+00 0.00000000E+00 0.00000000E+00 0.00000000E+00
  <rwgt>
   <wgt id='1001'> 0.15478E+04 </wgt>
   <wgt id='1002'> 0.15473E+04 </wgt>
   <wgt id='1003'> 0.15485E+04 </wgt>
   <wgt id='1004'> 0.16243E+04 </wgt>
   <wgt id='1005'> 0.16252E+04 </wgt>
   <wgt id='1006'> 0.16231E+04 </wgt>
   <wgt id='1007'> 0.14444E+04 </wgt>
   <wgt id='1008'> 0.14425E+04 </wgt>
   <wgt id='1009'> 0.14468E+04 </wgt>
  </rwgt>
  </event>
  <event>
  5      0 0.15478455E+04 0.43902906E+02 0.75467711E-02 0.13262788E+00
        1 -1    0    0  501    0 0.00000000E+00 0.00000000E+00 0.64393832E+02 0.64394627E+02 0.32000000E+00 0.0000E+00 0.9000E+01
       -1 -1    0    0    0  501 0.00000000E+00 0.00000000E+00 -.32937638E+02 0.32939193E+02 0.32000000E+00 0.0000E+00 0.9000E+01
       23  2    1    2    0    0 0.00000000E+00 0.00000000E+00 0.31456194E+02 0.97333820E+02 0.92110696E+02 0.0000E+00 0.0000E+00
      -11  1    3    3    0    0 0.20969486E+02 0.38571308E+02 0.30432247E+02 0.53418974E+02 0.51099893E-03 0.0000E+00 0.9000E+01
       11  1    3    3    0    0 -.20969486E+02 -.38571308E+02 0.10239462E+01 0.43914845E+02 0.51099893E-03 0.0000E+00 0.9000E+01
#aMCatNLO 1  0  0  1  1 0.13384046E+00 0.00000000E+00  9  5  0 0.00000000E+00 0.00000000E+00 0.00000000E+00 0.00000000E+00 0.00000000E+00
  <rwgt>
   <wgt id='1001'> 0.15478E+04 </wgt>
   <wgt id='1002'> 0.15189E+04 </wgt>
   <wgt id='1003'> 0.15847E+04 </wgt>
   <wgt id='1004'> 0.16841E+04 </wgt>
   <wgt id='1005'> 0.16548E+04 </wgt>
   <wgt id='1006'> 0.17216E+04 </wgt>
   <wgt id='1007'> 0.13818E+04 </wgt>
   <wgt id='1008'> 0.13542E+04 </wgt>
   <wgt id='1009'> 0.14170E+04 </wgt>
  </rwgt>
  </event>
  <event>
  5      0 0.15478455E+04 0.42267734E+02 0.75467711E-02 0.12225107E+00
       -2 -1    0    0    0  501 0.00000000E+00 0.00000000E+00 0.13693868E+02 0.13697606E+02 0.32000000E+00 0.0000E+00 0.9000E+01
        2 -1    0    0  501    0 0.00000000E+00 0.00000000E+00 -.14039638E+03 0.14039675E+03 0.32000000E+00 0.0000E+00 0.9000E+01
       23  2    1    2    0    0 0.00000000E+00 0.00000000E+00 -.12670251E+03 0.15409435E+03 0.87701439E+02 0.0000E+00 0.0000E+00
      -11  1    3    3    0    0 0.26504576E+02 -.32925200E+02 -.83866025E+02 0.93915236E+02 0.51099893E-03 0.0000E+00 0.9000E+01
       11  1    3    3    0    0 -.26504576E+02 0.32925200E+02 -.42836489E+02 0.60179117E+02 0.51099893E-03 0.0000E+00 0.9000E+01
#aMCatNLO 1  0  0  1  1 0.47914422E+02 0.00000000E+00  9  5  0 0.00000000E+00 0.00000000E+00 0.00000000E+00 0.00000000E+00 0.00000000E+00
  <rwgt>
   <wgt id='1001'> 0.15479E+04 </wgt>
   <wgt id='1002'> 0.18686E+04 </wgt>
   <wgt id='1003'> 0.11378E+04 </wgt>
   <wgt id='1004'> 0.60199E+03 </wgt>
   <wgt id='1005'> 0.10746E+04 </wgt>
   <wgt id='1006'> -.19237E+01 </wgt>
   <wgt id='1007'> 0.23905E+04 </wgt>
   <wgt id='1008'> 0.25635E+04 </wgt>
   <wgt id='1009'> 0.21694E+04 </wgt>
  </rwgt>
  </event>
  <event>
  5      0 0.15478455E+04 0.38734919E+02 0.75467711E-02 0.13359756E+00
        2 -1    0    0  501    0 0.00000000E+00 0.00000000E+00 0.77720273E+02 0.77720932E+02 0.32000000E+00 0.0000E+00 0.9000E+01
       -2 -1    0    0    0  501 0.00000000E+00 0.00000000E+00 -.25493412E+02 0.25495420E+02 0.32000000E+00 0.0000E+00 0.9000E+01
       23  2    1    2    0    0 0.00000000E+00 0.00000000E+00 0.52226861E+02 0.10321635E+03 0.89027919E+02 0.0000E+00 0.0000E+00
      -11  1    3    3    0    0 -.38701779E+02 0.16019439E+01 0.51543020E+02 0.64475397E+02 0.51099893E-03 0.0000E+00 0.9000E+01
       11  1    3    3    0    0 0.38701779E+02 -.16019439E+01 0.68384101E+00 0.38740955E+02 0.51099893E-03 0.0000E+00 0.9000E+01
#aMCatNLO 1  0  0  1  1 0.65559148E+01 0.00000000E+00  9  5  0 0.00000000E+00 0.00000000E+00 0.00000000E+00 0.00000000E+00 0.00000000E+00
  <rwgt>
   <wgt id='1001'> 0.15479E+04 </wgt>
   <wgt id='1002'> 0.15638E+04 </wgt>
   <wgt id='1003'> 0.15273E+04 </wgt>
   <wgt id='1004'> 0.16957E+04 </wgt>
   <wgt id='1005'> 0.17154E+04 </wgt>
   <wgt id='1006'> 0.16703E+04 </wgt>
   <wgt id='1007'> 0.13719E+04 </wgt>
   <wgt id='1008'> 0.13844E+04 </wgt>
   <wgt id='1009'> 0.13559E+04 </wgt>
  </rwgt>
  </event>
  <event>
  5      0 0.15478455E+04 0.30000000E+02 0.75467711E-02 0.15300799E+00
        2 -1    0    0  502    0 0.00000000E+00 0.00000000E+00 0.20177435E+03 0.20177461E+03 0.32000000E+00 0.0000E+00 0.9000E+01
       -2 -1    0    0    0  501 0.00000000E+00 0.00000000E+00 -.24210003E+01 0.24420570E+01 0.32000000E+00 0.0000E+00 0.9000E+01
      -11  1    1    2    0    0 -.99319042E+01 -.10692033E+02 0.64206470E+02 0.65844006E+02 0.51099893E-03 0.0000E+00 0.9000E+01
       11  1    1    2    0    0 0.12007987E+02 0.16041280E+02 0.12575298E+03 0.12733942E+03 0.51099893E-03 0.0000E+00 0.9000E+01
       21  1    1    2  502  501 -.20760828E+01 -.53492463E+01 0.93938999E+01 0.11033241E+02 0.75000000E+00 0.0000E+00 0.9000E+01
#aMCatNLO 2  0  0  1  2 0.57379923E+01 0.00000000E+00  9  5  0 0.00000000E+00 0.00000000E+00 0.00000000E+00 0.00000000E+00 0.00000000E+00
  <rwgt>
   <wgt id='1001'> 0.15478E+04 </wgt>
   <wgt id='1002'> 0.13615E+04 </wgt>
   <wgt id='1003'> 0.17956E+04 </wgt>
   <wgt id='1004'> 0.18439E+04 </wgt>
   <wgt id='1005'> 0.16219E+04 </wgt>
   <wgt id='1006'> 0.21390E+04 </wgt>
   <wgt id='1007'> 0.12377E+04 </wgt>
   <wgt id='1008'> 0.10887E+04 </wgt>
   <wgt id='1009'> 0.14358E+04 </wgt>
  </rwgt>
  </event>
  <event>
  5      0 -.15478455E+04 0.21534447E+02 0.75467711E-02 0.13201344E+00
       -1 -1    0    0    0  501 0.00000000E+00 0.00000000E+00 0.26845299E+01 0.27035349E+01 0.32000000E+00 0.0000E+00 0.9000E+01
        1 -1    0    0  501    0 0.00000000E+00 0.00000000E+00 -.76239562E+03 0.76239568E+03 0.32000000E+00 0.0000E+00 0.9000E+01
       23  2    1    2    0    0 0.00000000E+00 0.00000000E+00 -.75971109E+03 0.76509922E+03 0.90641487E+02 0.0000E+00 0.0000E+00
      -11  1    3    3    0    0 0.44838325E+02 0.19250507E+01 -.32661163E+03 0.32968066E+03 0.51099893E-03 0.0000E+00 0.9000E+01
       11  1    3    3    0    0 -.44838325E+02 -.19250507E+01 -.43309945E+03 0.43541855E+03 0.51099893E-03 0.0000E+00 0.9000E+01
#aMCatNLO 1  0  0  1  2 0.61294801E+00 0.00000000E+00  9  5  0 0.00000000E+00 0.00000000E+00 0.00000000E+00 0.00000000E+00 0.00000000E+00
  <rwgt>
   <wgt id='1001'> -.15479E+04 </wgt>
   <wgt id='1002'> -.12911E+04 </wgt>
   <wgt id='1003'> -.18772E+04 </wgt>
   <wgt id='1004'> -.22476E+04 </wgt>
   <wgt id='1005'> -.19100E+04 </wgt>
   <wgt id='1006'> -.26800E+04 </wgt>
   <wgt id='1007'> -.87905E+03 </wgt>
   <wgt id='1008'> -.70130E+03 </wgt>
   <wgt id='1009'> -.11076E+04 </wgt>
  </rwgt>
  </event>
  <event>
  5      0 0.15478455E+04 0.30000000E+02 0.75467711E-02 0.13397950E+00
        1 -1    0    0  501    0 0.00000000E+00 0.00000000E+00 0.58418888E+03 0.58418896E+03 0.32000000E+00 0.0000E+00 0.9000E+01
       -1 -1    0    0    0  501 0.00000000E+00 0.00000000E+00 -.30688545E+01 0.30854932E+01 0.32000000E+00 0.0000E+00 0.9000E+01
       23  2    1    2    0    0 0.00000000E+00 0.00000000E+00 0.58112002E+03 0.58727446E+03 0.84798634E+02 0.0000E+00 0.0000E+00
      -11  1    3    3    0    0 -.18374672E+02 -.23769899E+01 0.26442202E+02 0.32287284E+02 0.51099893E-03 0.0000E+00 0.9000E+01
       11  1    3    3    0    0 0.18374672E+02 0.23769899E+01 0.55467782E+03 0.55498717E+03 0.51099893E-03 0.0000E+00 0.9000E+01
#aMCatNLO 1  0  0  2  2 0.33969360E+02 0.00000000E+00  9  5  0 0.00000000E+00 0.00000000E+00 0.00000000E+00 0.00000000E+00 0.00000000E+00
  <rwgt>
   <wgt id='1001'> 0.15478E+04 </wgt>
   <wgt id='1002'> 0.15365E+04 </wgt>
   <wgt id='1003'> 0.15630E+04 </wgt>
   <wgt id='1004'> 0.17235E+04 </wgt>
   <wgt id='1005'> 0.17128E+04 </wgt>
   <wgt id='1006'> 0.17377E+04 </wgt>
   <wgt id='1007'> 0.13373E+04 </wgt>
   <wgt id='1008'> 0.13260E+04 </wgt>
   <wgt id='1009'> 0.13524E+04 </wgt>
  </rwgt>
  </event>
  <event>
  5      0 0.15478455E+04 0.44491087E+02 0.75467711E-02 0.11707480E+00
       -3 -1    0    0    0  501 0.00000000E+00 0.00000000E+00 0.17558820E+03 0.17558891E+03 0.50000000E+00 0.0000E+00 0.9000E+01
        3 -1    0    0  501    0 0.00000000E+00 0.00000000E+00 -.12065554E+02 0.12075910E+02 0.50000000E+00 0.0000E+00 0.9000E+01
       23  2    1    2    0    0 0.00000000E+00 0.00000000E+00 0.16352264E+03 0.18766482E+03 0.92078387E+02 0.0000E+00 0.0000E+00
      -11  1    3    3    0    0 0.44235537E+02 0.47617358E+01 0.57633259E+02 0.72808306E+02 0.51099893E-03 0.0000E+00 0.9000E+01
       11  1    3    3    0    0 -.44235537E+02 -.47617358E+01 0.10588938E+03 0.11485651E+03 0.51099893E-03 0.0000E+00 0.9000E+01
#aMCatNLO 1  0  0  1  1 0.76286914E+02 0.00000000E+00  9  5  0 0.00000000E+00 0.00000000E+00 0.00000000E+00 0.00000000E+00 0.00000000E+00
  <rwgt>
   <wgt id='1001'> 0.15479E+04 </wgt>
   <wgt id='1002'> 0.15477E+04 </wgt>
   <wgt id='1003'> 0.15481E+04 </wgt>
   <wgt id='1004'> 0.17184E+04 </wgt>
   <wgt id='1005'> 0.17198E+04 </wgt>
   <wgt id='1006'> 0.17166E+04 </wgt>
   <wgt id='1007'> 0.13448E+04 </wgt>
   <wgt id='1008'> 0.13434E+04 </wgt>
   <wgt id='1009'> 0.13466E+04 </wgt>
  </rwgt>
  </event>
  <event>
  5      0 0.15478455E+04 0.18603065E+02 0.75467711E-02 0.15286603E+00
        2 -1    0    0  501    0 0.00000000E+00 0.00000000E+00 0.21836388E+03 0.21836411E+03 0.32000000E+00 0.0000E+00 0.9000E+01
       -2 -1    0    0    0  501 0.00000000E+00 0.00000000E+00 -.94180303E+01 0.94234651E+01 0.32000000E+00 0.0000E+00 0.9000E+01
       23  2    1    2    0    0 0.00000000E+00 0.00000000E+00 0.20894585E+03 0.22778758E+03 0.90712806E+02 0.0000E+00 0.0000E+00
      -11  1    3    3    0    0 0.11359767E+02 -.20170638E+01 0.21462031E+03 0.21493019E+03 0.51099893E-03 0.0000E+00 0.9000E+01
       11  1    3    3    0    0 -.11359767E+02 0.20170638E+01 -.56744573E+01 0.12857384E+02 0.51099893E-03 0.0000E+00 0.9000E+01
#aMCatNLO 1  0  0  2  1 0.13731618E+02 0.00000000E+00  9  5  0 0.00000000E+00 0.00000000E+00 0.00000000E+00 0.00000000E+00 0.00000000E+00
  <rwgt>
   <wgt id='1001'> 0.15479E+04 </wgt>
   <wgt id='1002'> 0.14700E+04 </wgt>
   <wgt id='1003'> 0.16447E+04 </wgt>
   <wgt id='1004'> 0.15536E+04 </wgt>
   <wgt id='1005'> 0.14963E+04 </wgt>
   <wgt id='1006'> 0.16206E+04 </wgt>
   <wgt id='1007'> 0.14565E+04 </wgt>
   <wgt id='1008'> 0.13668E+04 </wgt>
   <wgt id='1009'> 0.15714E+04 </wgt>
  </rwgt>
  </event>
  <event>
  5      0 0.15478455E+04 0.43528122E+02 0.75467711E-02 0.12526192E+00
       -2 -1    0    0    0  501 0.00000000E+00 0.00000000E+00 0.22812615E+02 0.22814859E+02 0.32000000E+00 0.0000E+00 0.9000E+01
        2 -1    0    0  501    0 0.00000000E+00 0.00000000E+00 -.87626452E+02 0.87627036E+02 0.32000000E+00 0.0000E+00 0.9000E+01
       23  2    1    2    0    0 0.00000000E+00 0.00000000E+00 -.64813837E+02 0.11044190E+03 0.89423592E+02 0.0000E+00 0.0000E+00
      -11  1    3    3    0    0 0.55288785E+01 -.43175559E+02 -.19784853E+02 0.47813573E+02 0.51099893E-03 0.0000E+00 0.9000E+01
       11  1    3    3    0    0 -.55288785E+01 0.43175559E+02 -.45028983E+02 0.62628322E+02 0.51099893E-03 0.0000E+00 0.9000E+01
#aMCatNLO 1  0  0  2  1 0.31720278E+02 0.00000000E+00  9  5  0 0.00000000E+00 0.00000000E+00 0.00000000E+00 0.00000000E+00 0.00000000E+00
  <rwgt>
   <wgt id='1001'> 0.15479E+04 </wgt>
   <wgt id='1002'> 0.15472E+04 </wgt>
   <wgt id='1003'> 0.15488E+04 </wgt>
   <wgt id='1004'> 0.16921E+04 </wgt>
   <wgt id='1005'> 0.16929E+04 </wgt>
   <wgt id='1006'> 0.16911E+04 </wgt>
   <wgt id='1007'> 0.13774E+04 </wgt>
   <wgt id='1008'> 0.13755E+04 </wgt>
   <wgt id='1009'> 0.13798E+04 </wgt>
  </rwgt>
  </event>
  <event>
  4      0 0.15478455E+04 0.21453227E+02 0.75467711E-02 0.13287250E+00
        1 -1    0    0  501    0 0.00000000E+00 0.00000000E+00 0.65140551E+03 0.65140559E+03 0.32000000E+00 0.0000E+00 0.9000E+01
       -1 -1    0    0    0  501 0.00000000E+00 0.00000000E+00 -.21758666E+01 0.21992716E+01 0.32000000E+00 0.0000E+00 0.9000E+01
      -11  1    1    2    0    0 -.37709142E+02 -.15304510E+01 0.31724785E+03 0.31948477E+03 0.51099893E-03 0.0000E+00 0.9000E+01
       11  1    1    2    0    0 0.37709142E+02 0.15304510E+01 0.33198179E+03 0.33412009E+03 0.51099893E-03 0.0000E+00 0.9000E+01
#aMCatNLO 1  0  0  1  2 0.10752602E+02 0.00000000E+00  9  5  0 0.00000000E+00 0.00000000E+00 0.00000000E+00 0.00000000E+00 0.00000000E+00
  <rwgt>
   <wgt id='1001'> 0.15478E+04 </wgt>
   <wgt id='1002'> 0.14582E+04 </wgt>
   <wgt id='1003'> 0.16625E+04 </wgt>
   <wgt id='1004'> 0.20729E+04 </wgt>
   <wgt id='1005'> 0.19341E+04 </wgt>
   <wgt id='1006'> 0.22506E+04 </wgt>
   <wgt id='1007'> 0.10900E+04 </wgt>
   <wgt id='1008'> 0.10410E+04 </wgt>
   <wgt id='1009'> 0.11524E+04 </wgt>
  </rwgt>
  </event>
  <event>
  5      0 0.15478455E+04 0.20978965E+02 0.75467711E-02 0.12878638E+00
        3 -1    0    0  501    0 0.00000000E+00 0.00000000E+00 0.16767222E+01 0.17496849E+01 0.50000000E+00 0.0000E+00 0.9000E+01
       -3 -1    0    0    0  501 0.00000000E+00 0.00000000E+00 -.12427267E+04 0.12427268E+04 0.50000000E+00 0.0000E+00 0.9000E+01
       23  2    1    2    0    0 0.00000000E+00 0.00000000E+00 -.12410500E+04 0.12444765E+04 0.92285835E+02 0.0000E+00 0.0000E+00
      -11  1    3    3    0    0 -.41748085E+02 -.29456639E+01 -.88256130E+03 0.88355307E+03 0.51099893E-03 0.0000E+00 0.9000E+01
       11  1    3    3    0    0 0.41748085E+02 0.29456639E+01 -.35848867E+03 0.36092341E+03 0.51099893E-03 0.0000E+00 0.9000E+01
#aMCatNLO 1  0  0  1  2 0.19140278E+02 0.00000000E+00  9  5  0 0.00000000E+00 0.00000000E+00 0.00000000E+00 0.00000000E+00 0.00000000E+00
  <rwgt>
   <wgt id='1001'> 0.15478E+04 </wgt>
   <wgt id='1002'> 0.15293E+04 </wgt>
   <wgt id='1003'> 0.15671E+04 </wgt>
   <wgt id='1004'> 0.13490E+04 </wgt>
   <wgt id='1005'> 0.13602E+04 </wgt>
   <wgt id='1006'> 0.13301E+04 </wgt>
   <wgt id='1007'> 0.17352E+04 </wgt>
   <wgt id='1008'> 0.16853E+04 </wgt>
   <wgt id='1009'> 0.17947E+04 </wgt>
  </rwgt>
  </event>
  <event>
  5      0 0.15478455E+04 0.20280497E+02 0.75467711E-02 0.15345067E+00
       -2 -1    0    0    0  501 0.00000000E+00 0.00000000E+00 0.14272216E+01 0.14626557E+01 0.32000000E+00 0.0000E+00 0.9000E+01
        2 -1    0    0  501    0 0.00000000E+00 0.00000000E+00 -.13352128E+04 0.13352128E+04 0.32000000E+00 0.0000E+00 0.9000E+01
       23  2    1    2    0    0 0.00000000E+00 0.00000000E+00 -.13337855E+04 0.13366755E+04 0.87848774E+02 0.0000E+00 0.0000E+00
      -11  1    3    3    0    0 0.75387415E+01 -.16186558E+02 -.12775150E+04 0.12776397E+04 0.51099893E-03 0.0000E+00 0.9000E+01
       11  1    3    3    0    0 -.75387415E+01 0.16186558E+02 -.56270574E+02 0.59035707E+02 0.51099893E-03 0.0000E+00 0.9000E+01
#aMCatNLO 1  0  0  2  1 0.38731893E+01 0.00000000E+00  9  5  0 0.00000000E+00 0.00000000E+00 0.00000000E+00 0.00000000E+00 0.00000000E+00
  <rwgt>
   <wgt id='1001'> 0.15479E+04 </wgt>
   <wgt id='1002'> 0.14529E+04 </wgt>
   <wgt id='1003'> 0.16708E+04 </wgt>
   <wgt id='1004'> 0.22797E+04 </wgt>
   <wgt id='1005'> 0.21040E+04 </wgt>
   <wgt id='1006'> 0.25106E+04 </wgt>
   <wgt id='1007'> 0.93989E+03 </wgt>
   <wgt id='1008'> 0.90827E+03 </wgt>
   <wgt id='1009'> 0.97843E+03 </wgt>
  </rwgt>
  </event>
  <event>
  4      0 0.15478455E+04 0.30000000E+02 0.75467711E-02 0.13794416E+00
        2 -1    0    0  501    0 0.00000000E+00 0.00000000E+00 0.10215148E+03 0.10215198E+03 0.32000000E+00 0.0000E+00 0.9000E+01
       -2 -1    0    0    0  501 0.00000000E+00 0.00000000E+00 -.85495422E+01 0.85555287E+01 0.32000000E+00 0.0000E+00 0.9000E+01
      -11  1    1    2    0    0 -.78822022E+01 -.19821225E+02 0.85119976E+02 0.87752039E+02 0.51099893E-03 0.0000E+00 0.9000E+01
       11  1    1    2    0    0 0.78822022E+01 0.19821225E+02 0.84819656E+01 0.22955474E+02 0.51099893E-03 0.0000E+00 0.9000E+01
#aMCatNLO 1  0  0  2  2 0.22116849E+02 0.00000000E+00  9  5  0 0.00000000E+00 0.00000000E+00 0.00000000E+00 0.00000000E+00 0.00000000E+00
  <rwgt>
   <wgt id='1001'> 0.15478E+04 </wgt>
   <wgt id='1002'> 0.15441E+04 </wgt>
   <wgt id='1003'> 0.15528E+04 </wgt>
   <wgt id='1004'> 0.17900E+04 </wgt>
   <wgt id='1005'> 0.17877E+04 </wgt>
   <wgt id='1006'> 0.17929E+04 </wgt>
   <wgt id='1007'> 0.12784E+04 </wgt>
   <wgt id='1008'> 0.12739E+04 </wgt>
   <wgt id='1009'> 0.12845E+04 </wgt>
  </rwgt>
  </event>
  <event>
  5      0 0.15478455E+04 0.35803086E+02 0.75467711E-02 0.13674438E+00
       -2 -1    0    0    0  501 0.00000000E+00 0.00000000E+00 0.15373694E+02 0.15377024E+02 0.32000000E+00 0.0000E+00 0.9000E+01
        2 -1    0    0  501    0 0.00000000E+00 0.00000000E+00 -.14691372E+03 0.14691407E+03 0.32000000E+00 0.0000E+00 0.9000E+01
       23  2    1    2    0    0 0.00000000E+00 0.00000000E+00 -.13154003E+03 0.16229109E+03 0.95055878E+02 0.0000E+00 0.0000E+00
      -11  1    3    3    0    0 -.35771461E+02 0.15045086E+01 -.11913701E+03 0.12440051E+03 0.51099893E-03 0.0000E+00 0.9000E+01
       11  1    3    3    0    0 0.35771461E+02 -.15045086E+01 -.12403016E+02 0.37890577E+02 0.51099893E-03 0.0000E+00 0.9000E+01
#aMCatNLO 1  0  0  2  1 0.20879710E+01 0.00000000E+00  9  5  0 0.00000000E+00 0.00000000E+00 0.00000000E+00 0.00000000E+00 0.00000000E+00
  <rwgt>
   <wgt id='1001'> 0.15479E+04 </wgt>
   <wgt id='1002'> 0.15302E+04 </wgt>
   <wgt id='1003'> 0.15706E+04 </wgt>
   <wgt id='1004'> 0.16884E+04 </wgt>
   <wgt id='1005'> 0.16715E+04 </wgt>
   <wgt id='1006'> 0.17101E+04 </wgt>
   <wgt id='1007'> 0.13792E+04 </wgt>
   <wgt id='1008'> 0.13614E+04 </wgt>
   <wgt id='1009'> 0.14021E+04 </wgt>
  </rwgt>
  </event>
  <event>
  5      0 0.15478455E+04 0.40631424E+02 0.75467711E-02 0.13063598E+00
        2 -1    0    0  501    0 0.00000000E+00 0.00000000E+00 0.18417857E+02 0.18420637E+02 0.32000000E+00 0.0000E+00 0.9000E+01
       -2 -1    0    0    0  501 0.00000000E+00 0.00000000E+00 -.92862949E+02 0.92863500E+02 0.32000000E+00 0.0000E+00 0.9000E+01
       23  2    1    2    0    0 0.00000000E+00 0.00000000E+00 -.74445092E+02 0.11128414E+03 0.82716912E+02 0.0000E+00 0.0000E+00
      -11  1    3    3    0    0 0.37968147E+02 -.14468326E+02 -.26835411E+02 0.48693448E+02 0.51099893E-03 0.0000E+00 0.9000E+01
       11  1    3    3    0    0 -.37968147E+02 0.14468326E+02 -.47609681E+02 0.62590689E+02 0.51099893E-03 0.0000E+00 0.9000E+01
#aMCatNLO 1  0  0  2  1 0.13766867E+02 0.00000000E+00  9  5  0 0.00000000E+00 0.00000000E+00 0.00000000E+00 0.00000000E+00 0.00000000E+00
  <rwgt>
   <wgt id='1001'> 0.15479E+04 </wgt>
   <wgt id='1002'> 0.15632E+04 </wgt>
   <wgt id='1003'> 0.15281E+04 </wgt>
   <wgt id='1004'> 0.16955E+04 </wgt>
   <wgt id='1005'> 0.17144E+04 </wgt>
   <wgt id='1006'> 0.16714E+04 </wgt>
   <wgt id='1007'> 0.13716E+04 </wgt>
   <wgt id='1008'> 0.13837E+04 </wgt>
   <wgt id='1009'> 0.13561E+04 </wgt>
  </rwgt>
  </event>
  <event>
  5      0 0.15478455E+04 0.43073966E+02 0.75467711E-02 0.13306282E+00
        1 -1    0    0  501    0 0.00000000E+00 0.00000000E+00 0.12140579E+03 0.12140621E+03 0.32000000E+00 0.0000E+00 0.9000E+01
       -1 -1    0    0    0  501 0.00000000E+00 0.00000000E+00 -.17052427E+02 0.17055429E+02 0.32000000E+00 0.0000E+00 0.9000E+01
       23  2    1    2    0    0 0.00000000E+00 0.00000000E+00 0.10435336E+03 0.13846164E+03 0.91005503E+02 0.0000E+00 0.0000E+00
      -11  1    3    3    0    0 0.42657178E+01 0.42862223E+02 0.29860690E+02 0.52412091E+02 0.51099893E-03 0.0000E+00 0.9000E+01
       11  1    3    3    0    0 -.42657178E+01 -.42862223E+02 0.74492673E+02 0.86049549E+02 0.51099893E-03 0.0000E+00 0.9000E+01
#aMCatNLO 1  0  0  2  1 0.12136226E+00 0.00000000E+00  9  5  0 0.00000000E+00 0.00000000E+00 0.00000000E+00 0.00000000E+00 0.00000000E+00
  <rwgt>
   <wgt id='1001'> 0.15478E+04 </wgt>
   <wgt id='1002'> 0.15093E+04 </wgt>
   <wgt id='1003'> 0.15970E+04 </wgt>
   <wgt id='1004'> 0.16908E+04 </wgt>
   <wgt id='1005'> 0.16501E+04 </wgt>
   <wgt id='1006'> 0.17429E+04 </wgt>
   <wgt id='1007'> 0.13756E+04 </wgt>
   <wgt id='1008'> 0.13404E+04 </wgt>
   <wgt id='1009'> 0.14206E+04 </wgt>
  </rwgt>
  </event>
  <event>
  6      0 0.15478455E+04 0.30000000E+02 0.75467711E-02 0.15326764E+00
        3 -1    0    0  501    0 0.00000000E+00 0.00000000E+00 0.34172395E+03 0.34172432E+03 0.50000000E+00 0.0000E+00 0.9000E+01
       21 -1    0    0  502  501 0.00000000E+00 0.00000000E+00 -.11005820E+02 0.11031345E+02 0.75000000E+00 0.0000E+00 0.9000E+01
       23  2    1    2    0    0 0.17314107E+02 0.67649820E+01 0.20846752E+03 0.22909886E+03 0.93177447E+02 0.0000E+00 0.0000E+00
      -11  1    3    3    0    0 0.16967903E+02 0.24922683E+01 -.31509130E+01 0.17437012E+02 0.51099893E-03 0.0000E+00 0.9000E+01
       11  1    3    3    0    0 0.34620412E+00 0.42727136E+01 0.21161843E+03 0.21166184E+03 0.51099893E-03 0.0000E+00 0.9000E+01
        3  1    1    2  502    0 -.17314107E+02 -.67649820E+01 0.12225061E+03 0.12365680E+03 0.50000000E+00 0.0000E+00 0.9000E+01
#aMCatNLO 2  0  0  2  1 0.18588795E+02 0.00000000E+00  9  5  0 0.00000000E+00 0.00000000E+00 0.00000000E+00 0.00000000E+00 0.00000000E+00
  <rwgt>
   <wgt id='1001'> 0.15478E+04 </wgt>
   <wgt id='1002'> 0.13612E+04 </wgt>
   <wgt id='1003'> 0.17961E+04 </wgt>
   <wgt id='1004'> 0.17224E+04 </wgt>
   <wgt id='1005'> 0.15147E+04 </wgt>
   <wgt id='1006'> 0.19986E+04 </wgt>
   <wgt id='1007'> 0.13141E+04 </wgt>
   <wgt id='1008'> 0.11557E+04 </wgt>
   <wgt id='1009'> 0.15249E+04 </wgt>
  </rwgt>
  </event>
  <event>
  5      0 0.15478455E+04 0.24955713E+02 0.75467711E-02 0.13109471E+00
       -1 -1    0    0    0  501 0.00000000E+00 0.00000000E+00 0.17255273E+01 0.17549486E+01 0.32000000E+00 0.0000E+00 0.9000E+01
        1 -1    0    0  501    0 0.00000000E+00 0.00000000E+00 -.12136906E+04 0.12136907E+04 0.32000000E+00 0.0000E+00 0.9000E+01
       23  2    1    2    0    0 0.00000000E+00 0.00000000E+00 -.12119651E+04 0.12154456E+04 0.91916522E+02 0.0000E+00 0.0000E+00
      -11  1    3    3    0    0 -.10630755E+01 0.42481545E+02 -.83742917E+03 0.83850666E+03 0.51099893E-03 0.0000E+00 0.9000E+01
       11  1    3    3    0    0 0.10630755E+01 -.42481545E+02 -.37453594E+03 0.37693896E+03 0.51099893E-03 0.0000E+00 0.9000E+01
#aMCatNLO 1  0  0  2  1 0.87485263E+01 0.00000000E+00  9  5  0 0.00000000E+00 0.00000000E+00 0.00000000E+00 0.00000000E+00 0.00000000E+00
  <rwgt>
   <wgt id='1001'> 0.15479E+04 </wgt>
   <wgt id='1002'> 0.14736E+04 </wgt>
   <wgt id='1003'> 0.16419E+04 </wgt>
   <wgt id='1004'> 0.21844E+04 </wgt>
   <wgt id='1005'> 0.20478E+04 </wgt>
   <wgt id='1006'> 0.23580E+04 </wgt>
   <wgt id='1007'> 0.97368E+03 </wgt>
   <wgt id='1008'> 0.95357E+03 </wgt>
   <wgt id='1009'> 0.99865E+03 </wgt>
  </rwgt>
  </event>
  <event>
  5      0 0.15478455E+04 0.21422777E+02 0.75467711E-02 0.12950988E+00
       -3 -1    0    0    0  501 0.00000000E+00 0.00000000E+00 0.82065538E+01 0.82217714E+01 0.50000000E+00 0.0000E+00 0.9000E+01
        3 -1    0    0  501    0 0.00000000E+00 0.00000000E+00 -.25955441E+03 0.25955489E+03 0.50000000E+00 0.0000E+00 0.9000E+01
       23  2    1    2    0    0 0.00000000E+00 0.00000000E+00 -.25134786E+03 0.26777667E+03 0.92350401E+02 0.0000E+00 0.0000E+00
      -11  1    3    3    0    0 -.35753564E+02 0.28424663E+02 -.10603580E+03 0.11545505E+03 0.51099893E-03 0.0000E+00 0.9000E+01
       11  1    3    3    0    0 0.35753564E+02 -.28424663E+02 -.14531206E+03 0.15232161E+03 0.51099893E-03 0.0000E+00 0.9000E+01
#aMCatNLO 1  0  0  2  1 0.94593688E+01 0.00000000E+00  9  5  0 0.00000000E+00 0.00000000E+00 0.00000000E+00 0.00000000E+00 0.00000000E+00
  <rwgt>
   <wgt id='1001'> 0.15479E+04 </wgt>
   <wgt id='1002'> 0.14857E+04 </wgt>
   <wgt id='1003'> 0.16258E+04 </wgt>
   <wgt id='1004'> 0.19528E+04 </wgt>
   <wgt id='1005'> 0.18592E+04 </wgt>
   <wgt id='1006'> 0.20706E+04 </wgt>
   <wgt id='1007'> 0.12336E+04 </wgt>
   <wgt id='1008'> 0.11914E+04 </wgt>
   <wgt id='1009'> 0.12862E+04 </wgt>
  </rwgt>
  </event>
  <event>
  5      0 0.15478455E+04 0.30000000E+02 0.75467711E-02 0.10973594E+00
        3 -1    0    0  501    0 0.00000000E+00 0.00000000E+00 0.22988987E+02 0.22994423E+02 0.50000000E+00 0.0000E+00 0.9000E+01
       -3 -1    0    0    0  501 0.00000000E+00 0.00000000E+00 -.90627468E+02 0.90628848E+02 0.50000000E+00 0.0000E+00 0.9000E+01
       23  2    1    2    0    0 0.00000000E+00 0.00000000E+00 -.67638482E+02 0.11362327E+03 0.91297774E+02 0.0000E+00 0.0000E+00
      -11  1    3    3    0    0 0.65272049E+01 -.47472844E+01 0.22097367E+02 0.23525194E+02 0.51099893E-03 0.0000E+00 0.9000E+01
       11  1    3    3    0    0 -.65272049E+01 0.47472844E+01 -.89735848E+02 0.90098078E+02 0.51099893E-03 0.0000E+00 0.9000E+01
#aMCatNLO 1  0  0  2  1 0.15012249E+03 0.00000000E+00  9  5  0 0.00000000E+00 0.00000000E+00 0.00000000E+00 0.00000000E+00 0.00000000E+00
  <rwgt>
   <wgt id='1001'> 0.15478E+04 </wgt>
   <wgt id='1002'> 0.14800E+04 </wgt>
   <wgt id='1003'> 0.16467E+04 </wgt>
   <wgt id='1004'> 0.19773E+04 </wgt>
   <wgt id='1005'> 0.18924E+04 </wgt>
   <wgt id='1006'> 0.21010E+04 </wgt>
   <wgt id='1007'> 0.10696E+04 </wgt>
   <wgt id='1008'> 0.10217E+04 </wgt>
   <wgt id='1009'> 0.11393E+04 </wgt>
  </rwgt>
  </event>
  <event>
  5      0 0.15478455E+04 0.30402101E+02 0.75467711E-02 0.12851054E+00
       -2 -1    0    0    0  501 0.00000000E+00 0.00000000E+00 0.16383722E+01 0.16693302E+01 0.32000000E+00 0.0000E+00 0.9000E+01
        2 -1    0    0  501    0 0.00000000E+00 0.00000000E+00 -.12643752E+04 0.12643753E+04 0.32000000E+00 0.0000E+00 0.9000E+01
       23  2    1    2    0    0 0.00000000E+00 0.00000000E+00 -.12627369E+04 0.12660446E+04 0.91457963E+02 0.0000E+00 0.0000E+00
      -11  1    3    3    0    0 -.27361584E+02 0.13252601E+02 -.11042315E+04 0.11046499E+04 0.51099893E-03 0.0000E+00 0.9000E+01
       11  1    3    3    0    0 0.27361584E+02 -.13252601E+02 -.15850539E+03 0.16139469E+03 0.51099893E-03 0.0000E+00 0.9000E+01
#aMCatNLO 1  0  0  1  1 0.35694385E+02 0.00000000E+00  9  5  0 0.00000000E+00 0.00000000E+00 0.00000000E+00 0.00000000E+00 0.00000000E+00
  <rwgt>
   <wgt id='1001'> 0.15479E+04 </wgt>
   <wgt id='1002'> 0.15442E+04 </wgt>
   <wgt id='1003'> 0.15526E+04 </wgt>
   <wgt id='1004'> 0.16555E+04 </wgt>
   <wgt id='1005'> 0.16533E+04 </wgt>
   <wgt id='1006'> 0.16583E+04 </wgt>
   <wgt id='1007'> 0.14087E+04 </wgt>
   <wgt id='1008'> 0.14040E+04 </wgt>
   <wgt id='1009'> 0.14148E+04 </wgt>
  </rwgt>
  </event>
  <event>
  5      0 0.15478455E+04 0.19858579E+02 0.75467711E-02 0.16369986E+00
       -2 -1    0    0    0  501 0.00000000E+00 0.00000000E+00 0.43001280E+01 0.43120182E+01 0.32000000E+00 0.0000E+00 0.9000E+01
        2 -1    0    0  501    0 0.00000000E+00 0.00000000E+00 -.50517455E+03 0.50517465E+03 0.32000000E+00 0.0000E+00 0.9000E+01
       23  2    1    2    0    0 0.00000000E+00 0.00000000E+00 -.50087442E+03 0.50948667E+03 0.93281723E+02 0.0000E+00 0.0000E+00
      -11  1    3    3    0    0 -.63286097E+01 -.49697097E+01 -.50136072E+03 0.50142529E+03 0.51099893E-03 0.0000E+00 0.9000E+01
       11  1    3    3    0    0 0.63286097E+01 0.49697097E+01 0.48630090E+00 0.80613773E+01 0.51099893E-03 0.0000E+00 0.9000E+01
#aMCatNLO 1  0  0  1  2 0.12796387E+02 0.00000000E+00  9  5  0 0.00000000E+00 0.00000000E+00 0.00000000E+00 0.00000000E+00 0.00000000E+00
  <rwgt>
   <wgt id='1001'> 0.15479E+04 </wgt>
   <wgt id='1002'> 0.14707E+04 </wgt>
   <wgt id='1003'> 0.15942E+04 </wgt>
   <wgt id='1004'> 0.11996E+04 </wgt>
   <wgt id='1005'> 0.11949E+04 </wgt>
   <wgt id='1006'> 0.11326E+04 </wgt>
   <wgt id='1007'> 0.17980E+04 </wgt>
   <wgt id='1008'> 0.16582E+04 </wgt>
   <wgt id='1009'> 0.19458E+04 </wgt>
  </rwgt>
  </event>
  <event>
  4      0 0.15478455E+04 0.30000000E+02 0.75467711E-02 0.13467599E+00
       -1 -1    0    0    0  501 0.00000000E+00 0.00000000E+00 0.84188166E+01 0.84248960E+01 0.32000000E+00 0.0000E+00 0.9000E+01
        1 -1    0    0  501    0 0.00000000E+00 0.00000000E+00 -.35974710E+02 0.35976133E+02 0.32000000E+00 0.0000E+00 0.9000E+01
      -11  1    1    2    0    0 0.15202783E+02 -.28236080E+01 -.23975225E+02 0.28529087E+02 0.51099893E-03 0.0000E+00 0.9000E+01
       11  1    1    2    0    0 -.15202783E+02 0.28236080E+01 -.35806690E+01 0.15871943E+02 0.51099893E-03 0.0000E+00 0.9000E+01
#aMCatNLO 1  0  0  1  2 0.35951534E+02 0.00000000E+00  9  5  0 0.00000000E+00 0.00000000E+00 0.00000000E+00 0.00000000E+00 0.00000000E+00
  <rwgt>
   <wgt id='1001'> 0.15478E+04 </wgt>
   <wgt id='1002'> 0.15453E+04 </wgt>
   <wgt id='1003'> 0.15512E+04 </wgt>
   <wgt id='1004'> 0.19173E+04 </wgt>
   <wgt id='1005'> 0.19167E+04 </wgt>
   <wgt id='1006'> 0.19179E+04 </wgt>
   <wgt id='1007'> 0.11653E+04 </wgt>
   <wgt id='1008'> 0.11618E+04 </wgt>
   <wgt id='1009'> 0.11699E+04 </wgt>
  </rwgt>
  </event>
  <event>
  5      0 0.15478455E+04 0.33482159E+02 0.75467711E-02 0.12776186E+00
       -2 -1    0    0    0  501 0.00000000E+00 0.00000000E+00 0.20175325E+01 0.20427524E+01 0.32000000E+00 0.0000E+00 0.9000E+01
        2 -1    0    0  501    0 0.00000000E+00 0.00000000E+00 -.10480422E+04 0.10480423E+04 0.32000000E+00 0.0000E+00 0.9000E+01
       23  2    1    2    0    0 0.00000000E+00 0.00000000E+00 -.10460247E+04 0.10500850E+04 0.92254565E+02 0.0000E+00 0.0000E+00
      -11  1    3    3    0    0 0.15148659E+02 0.29859222E+02 -.88415635E+03 0.88479009E+03 0.51099893E-03 0.0000E+00 0.9000E+01
       11  1    3    3    0    0 -.15148659E+02 -.29859222E+02 -.16186833E+03 0.16529492E+03 0.51099893E-03 0.0000E+00 0.9000E+01
#aMCatNLO 1  0  0  1  2 0.36420629E+02 0.00000000E+00  9  5  0 0.00000000E+00 0.00000000E+00 0.00000000E+00 0.00000000E+00 0.00000000E+00
  <rwgt>
   <wgt id='1001'> 0.15479E+04 </wgt>
   <wgt id='1002'> 0.15353E+04 </wgt>
   <wgt id='1003'> 0.15642E+04 </wgt>
   <wgt id='1004'> 0.79443E+03 </wgt>
   <wgt id='1005'> 0.87859E+03 </wgt>
   <wgt id='1006'> 0.68565E+03 </wgt>
   <wgt id='1007'> 0.21475E+04 </wgt>
   <wgt id='1008'> 0.20523E+04 </wgt>
   <wgt id='1009'> 0.22706E+04 </wgt>
  </rwgt>
  </event>
  <event>
  5      0 0.15478455E+04 0.30216366E+02 0.75467711E-02 0.13129539E+00
        2 -1    0    0  501    0 0.00000000E+00 0.00000000E+00 0.22082577E+04 0.22082577E+04 0.32000000E+00 0.0000E+00 0.9000E+01
       -2 -1    0    0    0  501 0.00000000E+00 0.00000000E+00 -.93116028E+00 0.98461132E+00 0.32000000E+00 0.0000E+00 0.9000E+01
       23  2    1    2    0    0 0.00000000E+00 0.00000000E+00 0.22073266E+04 0.22092423E+04 0.91984997E+02 0.0000E+00 0.0000E+00
      -11  1    3    3    0    0 0.41185585E+02 0.19415247E+02 0.12595096E+04 0.12603324E+04 0.51099893E-03 0.0000E+00 0.9000E+01
       11  1    3    3    0    0 -.41185585E+02 -.19415247E+02 0.94781694E+03 0.94890998E+03 0.51099893E-03 0.0000E+00 0.9000E+01
#aMCatNLO 1  0  0  1  2 0.22438359E+01 0.00000000E+00  9  5  0 0.00000000E+00 0.00000000E+00 0.00000000E+00 0.00000000E+00 0.00000000E+00
  <rwgt>
   <wgt id='1001'> 0.15479E+04 </wgt>
   <wgt id='1002'> 0.14221E+04 </wgt>
   <wgt id='1003'> 0.17078E+04 </wgt>
   <wgt id='1004'> 0.19445E+04 </wgt>
   <wgt id='1005'> 0.17775E+04 </wgt>
   <wgt id='1006'> 0.21568E+04 </wgt>
   <wgt id='1007'> 0.11549E+04 </wgt>
   <wgt id='1008'> 0.10694E+04 </wgt>
   <wgt id='1009'> 0.12636E+04 </wgt>
  </rwgt>
  </event>
  <event>
  6      0 0.15478455E+04 0.30000000E+02 0.75467711E-02 0.14227130E+00
       21 -1    0    0  502  501 0.00000000E+00 0.00000000E+00 0.59328012E+01 0.59800192E+01 0.75000000E+00 0.0000E+00 0.9000E+01
        1 -1    0    0  501    0 0.00000000E+00 0.00000000E+00 -.71137410E+03 0.71137417E+03 0.32000000E+00 0.0000E+00 0.9000E+01
       23  2    1    2    0    0 0.25370578E+02 0.13818585E+02 -.39651544E+03 0.40708026E+03 0.87494170E+02 0.0000E+00 0.0000E+00
      -11  1    3    3    0    0 0.11417546E+02 0.12998666E+01 -.38480667E+03 0.38497821E+03 0.51099893E-03 0.0000E+00 0.9000E+01
       11  1    3    3    0    0 0.13953032E+02 0.12518719E+02 -.11708764E+02 0.22102049E+02 0.51099893E-03 0.0000E+00 0.9000E+01
        1  1    1    2  502    0 -.25370578E+02 -.13818585E+02 -.30892586E+03 0.31027392E+03 0.32000000E+00 0.0000E+00 0.9000E+01
#aMCatNLO 2  0  0  1  1 0.28889782E+02 0.00000000E+00  9  5  0 0.00000000E+00 0.00000000E+00 0.00000000E+00 0.00000000E+00 0.00000000E+00
  <rwgt>
   <wgt id='1001'> 0.15479E+04 </wgt>
   <wgt id='1002'> 0.13737E+04 </wgt>
   <wgt id='1003'> 0.17744E+04 </wgt>
   <wgt id='1004'> 0.16608E+04 </wgt>
   <wgt id='1005'> 0.14739E+04 </wgt>
   <wgt id='1006'> 0.19039E+04 </wgt>
   <wgt id='1007'> 0.13890E+04 </wgt>
   <wgt id='1008'> 0.12327E+04 </wgt>
   <wgt id='1009'> 0.15923E+04 </wgt>
  </rwgt>
  </event>
  <event>
  5      0 0.15478455E+04 0.30000000E+02 0.75467711E-02 0.12387044E+00
        1 -1    0    0  501    0 0.00000000E+00 0.00000000E+00 0.47677904E+03 0.47677914E+03 0.32000000E+00 0.0000E+00 0.9000E+01
       -1 -1    0    0    0  501 0.00000000E+00 0.00000000E+00 -.46897663E+01 0.47006710E+01 0.32000000E+00 0.0000E+00 0.9000E+01
       23  2    1    2    0    0 0.00000000E+00 0.00000000E+00 0.47208927E+03 0.48147981E+03 0.94628394E+02 0.0000E+00 0.0000E+00
      -11  1    3    3    0    0 0.18465894E+02 0.42706654E+01 0.15464268E+02 0.24461631E+02 0.51099893E-03 0.0000E+00 0.9000E+01
       11  1    3    3    0    0 -.18465894E+02 -.42706654E+01 0.45662500E+03 0.45701818E+03 0.51099893E-03 0.0000E+00 0.9000E+01
#aMCatNLO 1  0  0  1  1 0.61504782E+02 0.00000000E+00  9  5  0 0.00000000E+00 0.00000000E+00 0.00000000E+00 0.00000000E+00 0.00000000E+00
  <rwgt>
   <wgt id='1001'> 0.15478E+04 </wgt>
   <wgt id='1002'> 0.15085E+04 </wgt>
   <wgt id='1003'> 0.16003E+04 </wgt>
   <wgt id='1004'> 0.15282E+04 </wgt>
   <wgt id='1005'> 0.15092E+04 </wgt>
   <wgt id='1006'> 0.15535E+04 </wgt>
   <wgt id='1007'> 0.15143E+04 </wgt>
   <wgt id='1008'> 0.14580E+04 </wgt>
   <wgt id='1009'> 0.15894E+04 </wgt>
  </rwgt>
  </event>
  <event>
  5      0 0.15478455E+04 0.30000000E+02 0.75467711E-02 0.15671402E+00
       -2 -1    0    0    0  501 0.00000000E+00 0.00000000E+00 0.50925092E+03 0.50925103E+03 0.32000000E+00 0.0000E+00 0.9000E+01
        2 -1    0    0  501    0 0.00000000E+00 0.00000000E+00 -.48962603E+01 0.49067061E+01 0.32000000E+00 0.0000E+00 0.9000E+01
       23  2    1    2    0    0 0.00000000E+00 0.00000000E+00 0.50435466E+03 0.51415773E+03 0.99922696E+02 0.0000E+00 0.0000E+00
      -11  1    3    3    0    0 -.34780000E+01 -.34496744E+00 0.50862639E+03 0.50863839E+03 0.51099893E-03 0.0000E+00 0.9000E+01
       11  1    3    3    0    0 0.34780000E+01 0.34496744E+00 -.42717211E+01 0.55193377E+01 0.51099893E-03 0.0000E+00 0.9000E+01
#aMCatNLO 1  0  0  2  2 0.17542853E+02 0.00000000E+00  9  5  0 0.00000000E+00 0.00000000E+00 0.00000000E+00 0.00000000E+00 0.00000000E+00
  <rwgt>
   <wgt id='1001'> 0.15479E+04 </wgt>
   <wgt id='1002'> 0.14812E+04 </wgt>
   <wgt id='1003'> 0.16666E+04 </wgt>
   <wgt id='1004'> 0.18696E+04 </wgt>
   <wgt id='1005'> 0.17925E+04 </wgt>
   <wgt id='1006'> 0.20072E+04 </wgt>
   <wgt id='1007'> 0.11627E+04 </wgt>
   <wgt id='1008'> 0.11107E+04 </wgt>
   <wgt id='1009'> 0.12555E+04 </wgt>
  </rwgt>
  </event>
  <event>
  6      0 0.15478455E+04 0.30000000E+02 0.75467711E-02 0.12737956E+00
        1 -1    0    0  502    0 0.00000000E+00 0.00000000E+00 0.51806122E+03 0.51806132E+03 0.32000000E+00 0.0000E+00 0.9000E+01
       -1 -1    0    0    0  501 0.00000000E+00 0.00000000E+00 -.98293485E+01 0.98345560E+01 0.32000000E+00 0.0000E+00 0.9000E+01
       23  2    1    2    0    0 0.37312433E+02 -.19144870E+02 0.34997719E+03 0.36417706E+03 0.91554102E+02 0.0000E+00 0.0000E+00
      -11  1    3    3    0    0 -.65919393E+01 -.24934506E+02 0.24080446E+02 0.35285281E+02 0.51099893E-03 0.0000E+00 0.9000E+01
       11  1    3    3    0    0 0.43904372E+02 0.57896352E+01 0.32589675E+03 0.32889178E+03 0.51099893E-03 0.0000E+00 0.9000E+01
       21  1    1    2  502  501 -.37312433E+02 0.19144870E+02 0.15825468E+03 0.16371882E+03 0.75000000E+00 0.0000E+00 0.9000E+01
#aMCatNLO 2  0  0  1  2 0.41937379E+02 0.00000000E+00  9  5  0 0.00000000E+00 0.00000000E+00 0.00000000E+00 0.00000000E+00 0.00000000E+00
  <rwgt>
   <wgt id='1001'> 0.15478E+04 </wgt>
   <wgt id='1002'> 0.13908E+04 </wgt>
   <wgt id='1003'> 0.17462E+04 </wgt>
   <wgt id='1004'> 0.16328E+04 </wgt>
   <wgt id='1005'> 0.14671E+04 </wgt>
   <wgt id='1006'> 0.18421E+04 </wgt>
   <wgt id='1007'> 0.14411E+04 </wgt>
   <wgt id='1008'> 0.12949E+04 </wgt>
   <wgt id='1009'> 0.16258E+04 </wgt>
  </rwgt>
  </event>
  <event>
  5      0 0.15478455E+04 0.30000000E+02 0.75467711E-02 0.14511129E+00
       21 -1    0    0  502  501 0.00000000E+00 0.00000000E+00 0.31628033E+01 0.32505115E+01 0.75000000E+00 0.0000E+00 0.9000E+01
        2 -1    0    0  501    0 0.00000000E+00 0.00000000E+00 -.25129033E+03 0.25129054E+03 0.32000000E+00 0.0000E+00 0.9000E+01
      -11  1    1    2    0    0 0.72568860E+01 0.25144307E+02 -.82493677E+02 0.86545395E+02 0.51099893E-03 0.0000E+00 0.9000E+01
       11  1    1    2    0    0 -.46287361E-01 -.11889204E+02 -.96746521E+02 0.97474328E+02 0.51099893E-03 0.0000E+00 0.9000E+01
        2  1    1    2  502    0 -.72105986E+01 -.13255103E+02 -.68887331E+02 0.70521325E+02 0.32000000E+00 0.0000E+00 0.9000E+01
#aMCatNLO 2  0  0  1  1 0.15089416E+02 0.00000000E+00  9  5  0 0.00000000E+00 0.00000000E+00 0.00000000E+00 0.00000000E+00 0.00000000E+00
  <rwgt>
   <wgt id='1001'> 0.15479E+04 </wgt>
   <wgt id='1002'> 0.13704E+04 </wgt>
   <wgt id='1003'> 0.17799E+04 </wgt>
   <wgt id='1004'> 0.18073E+04 </wgt>
   <wgt id='1005'> 0.16001E+04 </wgt>
   <wgt id='1006'> 0.20783E+04 </wgt>
   <wgt id='1007'> 0.12527E+04 </wgt>
   <wgt id='1008'> 0.11092E+04 </wgt>
   <wgt id='1009'> 0.14406E+04 </wgt>
  </rwgt>
  </event>
  <event>
  5      0 0.15478455E+04 0.36595296E+02 0.75467711E-02 0.13137235E+00
        2 -1    0    0  501    0 0.00000000E+00 0.00000000E+00 0.40399970E+03 0.40399983E+03 0.32000000E+00 0.0000E+00 0.9000E+01
       -2 -1    0    0    0  501 0.00000000E+00 0.00000000E+00 -.54969247E+01 0.55062312E+01 0.32000000E+00 0.0000E+00 0.9000E+01
       23  2    1    2    0    0 0.00000000E+00 0.00000000E+00 0.39850278E+03 0.40950606E+03 0.94290772E+02 0.0000E+00 0.0000E+00
      -11  1    3    3    0    0 0.15006827E+02 0.44018394E+02 0.23285394E+03 0.23745269E+03 0.51099893E-03 0.0000E+00 0.9000E+01
       11  1    3    3    0    0 -.15006827E+02 -.44018394E+02 0.16564884E+03 0.17205337E+03 0.51099893E-03 0.0000E+00 0.9000E+01
#aMCatNLO 1  0  0  2  2 0.55014365E+00 0.00000000E+00  9  5  0 0.00000000E+00 0.00000000E+00 0.00000000E+00 0.00000000E+00 0.00000000E+00
  <rwgt>
   <wgt id='1001'> 0.15479E+04 </wgt>
   <wgt id='1002'> 0.13861E+04 </wgt>
   <wgt id='1003'> 0.17536E+04 </wgt>
   <wgt id='1004'> 0.16984E+04 </wgt>
   <wgt id='1005'> 0.15210E+04 </wgt>
   <wgt id='1006'> 0.19241E+04 </wgt>
   <wgt id='1007'> 0.13759E+04 </wgt>
   <wgt id='1008'> 0.12322E+04 </wgt>
   <wgt id='1009'> 0.15589E+04 </wgt>
  </rwgt>
  </event>
  <event>
  5      0 0.15478455E+04 0.30000000E+02 0.75467711E-02 0.14153725E+00
        4 -1    0    0  501    0 0.00000000E+00 0.00000000E+00 0.13178555E+02 0.13269394E+02 0.15500000E+01 0.0000E+00 0.9000E+01
       21 -1    0    0  502  501 0.00000000E+00 0.00000000E+00 -.15408558E+03 0.15408741E+03 0.75000000E+00 0.0000E+00 0.9000E+01
      -11  1    1    2    0    0 0.60435053E+01 -.15633083E+02 -.10973870E+03 0.11101126E+03 0.51099893E-03 0.0000E+00 0.9000E+01
       11  1    1    2    0    0 -.19627951E+02 0.21634306E+02 -.29168162E+02 0.41280520E+02 0.51099893E-03 0.0000E+00 0.9000E+01
        4  1    1    2  502    0 0.13584446E+02 -.60012229E+01 -.20001683E+01 0.15065026E+02 0.15500000E+01 0.0000E+00 0.9000E+01
#aMCatNLO 2  0  0  2  2 0.14850988E+02 0.00000000E+00  9  5  0 0.00000000E+00 0.00000000E+00 0.00000000E+00 0.00000000E+00 0.00000000E+00
  <rwgt>
   <wgt id='1001'> 0.15478E+04 </wgt>
   <wgt id='1002'> 0.13745E+04 </wgt>
   <wgt id='1003'> 0.17729E+04 </wgt>
   <wgt id='1004'> 0.17375E+04 </wgt>
   <wgt id='1005'> 0.15429E+04 </wgt>
   <wgt id='1006'> 0.19903E+04 </wgt>
   <wgt id='1007'> 0.13035E+04 </wgt>
   <wgt id='1008'> 0.11575E+04 </wgt>
   <wgt id='1009'> 0.14930E+04 </wgt>
  </rwgt>
  </event>
  <event>
  4      0 0.15478455E+04 0.21975494E+02 0.75467711E-02 0.15364250E+00
       -1 -1    0    0    0  501 0.00000000E+00 0.00000000E+00 0.15000020E+01 0.15337555E+01 0.32000000E+00 0.0000E+00 0.9000E+01
        1 -1    0    0  501    0 0.00000000E+00 0.00000000E+00 -.15576857E+03 0.15576890E+03 0.32000000E+00 0.0000E+00 0.9000E+01
      -11  1    1    2    0    0 0.28977034E+01 -.14186089E+02 -.50702200E+02 0.52729071E+02 0.51099893E-03 0.0000E+00 0.9000E+01
       11  1    1    2    0    0 -.28977034E+01 0.14186089E+02 -.10356637E+03 0.10457358E+03 0.51099893E-03 0.0000E+00 0.9000E+01
#aMCatNLO 1  0  0  1  2 0.92116103E+01 0.00000000E+00  9  5  0 0.00000000E+00 0.00000000E+00 0.00000000E+00 0.00000000E+00 0.00000000E+00
  <rwgt>
   <wgt id='1001'> 0.15478E+04 </wgt>
   <wgt id='1002'> 0.14677E+04 </wgt>
   <wgt id='1003'> 0.16535E+04 </wgt>
   <wgt id='1004'> 0.16907E+04 </wgt>
   <wgt id='1005'> 0.16215E+04 </wgt>
   <wgt id='1006'> 0.17810E+04 </wgt>
   <wgt id='1007'> 0.13072E+04 </wgt>
   <wgt id='1008'> 0.12285E+04 </wgt>
   <wgt id='1009'> 0.14117E+04 </wgt>
  </rwgt>
  </event>
  <event>
  5      0 0.15478455E+04 0.30000000E+02 0.75467711E-02 0.11072559E+00
        2 -1    0    0  501    0 0.00000000E+00 0.00000000E+00 0.59111433E+03 0.59111442E+03 0.32000000E+00 0.0000E+00 0.9000E+01
       -2 -1    0    0    0  501 0.00000000E+00 0.00000000E+00 -.38822797E+01 0.38954455E+01 0.32000000E+00 0.0000E+00 0.9000E+01
       23  2    1    2    0    0 0.00000000E+00 0.00000000E+00 0.58723205E+03 0.59500986E+03 0.95891893E+02 0.0000E+00 0.0000E+00
      -11  1    3    3    0    0 -.54477901E+01 0.91788627E+01 0.35769918E+01 0.11257211E+02 0.51099893E-03 0.0000E+00 0.9000E+01
       11  1    3    3    0    0 0.54477901E+01 -.91788627E+01 0.58365506E+03 0.58375265E+03 0.51099893E-03 0.0000E+00 0.9000E+01
#aMCatNLO 1  0  0  1  1 0.14095257E+03 0.00000000E+00  9  5  0 0.00000000E+00 0.00000000E+00 0.00000000E+00 0.00000000E+00 0.00000000E+00
  <rwgt>
   <wgt id='1001'> 0.15479E+04 </wgt>
   <wgt id='1002'> 0.14969E+04 </wgt>
   <wgt id='1003'> 0.16188E+04 </wgt>
   <wgt id='1004'> 0.17873E+04 </wgt>
   <wgt id='1005'> 0.17301E+04 </wgt>
   <wgt id='1006'> 0.18670E+04 </wgt>
   <wgt id='1007'> 0.12688E+04 </wgt>
   <wgt id='1008'> 0.12259E+04 </wgt>
   <wgt id='1009'> 0.13286E+04 </wgt>
  </rwgt>
  </event>
  <event>
  5      0 0.15478455E+04 0.30000000E+02 0.75467711E-02 0.12794506E+00
        2 -1    0    0  501    0 0.00000000E+00 0.00000000E+00 0.21969607E+02 0.21971937E+02 0.32000000E+00 0.0000E+00 0.9000E+01
       -2 -1    0    0    0  501 0.00000000E+00 0.00000000E+00 -.92101821E+02 0.92102376E+02 0.32000000E+00 0.0000E+00 0.9000E+01
       23  2    1    2    0    0 0.00000000E+00 0.00000000E+00 -.70132214E+02 0.11407431E+03 0.89969004E+02 0.0000E+00 0.0000E+00
      -11  1    3    3    0    0 0.21755369E+01 -.19075770E+02 -.86647410E+02 0.88749037E+02 0.51099893E-03 0.0000E+00 0.9000E+01
       11  1    3    3    0    0 -.21755369E+01 0.19075770E+02 0.16515196E+02 0.25325277E+02 0.51099893E-03 0.0000E+00 0.9000E+01
#aMCatNLO 1  0  0  1  1 0.48361188E+02 0.00000000E+00  9  5  0 0.00000000E+00 0.00000000E+00 0.00000000E+00 0.00000000E+00 0.00000000E+00
  <rwgt>
   <wgt id='1001'> 0.15479E+04 </wgt>
   <wgt id='1002'> 0.14536E+04 </wgt>
   <wgt id='1003'> 0.16735E+04 </wgt>
   <wgt id='1004'> 0.11407E+04 </wgt>
   <wgt id='1005'> 0.11087E+04 </wgt>
   <wgt id='1006'> 0.11835E+04 </wgt>
   <wgt id='1007'> 0.18166E+04 </wgt>
   <wgt id='1008'> 0.16749E+04 </wgt>
   <wgt id='1009'> 0.20055E+04 </wgt>
  </rwgt>
  </event>
  <event>
  5      0 0.15478455E+04 0.19213640E+02 0.75467711E-02 0.13338376E+00
        1 -1    0    0  501    0 0.00000000E+00 0.00000000E+00 0.11774326E+02 0.11778673E+02 0.32000000E+00 0.0000E+00 0.9000E+01
       -1 -1    0    0    0  501 0.00000000E+00 0.00000000E+00 -.17388459E+03 0.17388489E+03 0.32000000E+00 0.0000E+00 0.9000E+01
       23  2    1    2    0    0 0.00000000E+00 0.00000000E+00 -.16211027E+03 0.18566356E+03 0.90505354E+02 0.0000E+00 0.0000E+00
      -11  1    3    3    0    0 -.33469852E+02 0.15394456E+02 -.13496408E+03 0.13990183E+03 0.51099893E-03 0.0000E+00 0.9000E+01
       11  1    3    3    0    0 0.33469852E+02 -.15394456E+02 -.27146192E+02 0.45761731E+02 0.51099893E-03 0.0000E+00 0.9000E+01
#aMCatNLO 1  0  0  1  2 0.10633420E+02 0.00000000E+00  9  5  0 0.00000000E+00 0.00000000E+00 0.00000000E+00 0.00000000E+00 0.00000000E+00
  <rwgt>
   <wgt id='1001'> 0.15478E+04 </wgt>
   <wgt id='1002'> 0.15013E+04 </wgt>
   <wgt id='1003'> 0.16056E+04 </wgt>
   <wgt id='1004'> 0.14333E+04 </wgt>
   <wgt id='1005'> 0.14119E+04 </wgt>
   <wgt id='1006'> 0.14586E+04 </wgt>
   <wgt id='1007'> 0.16191E+04 </wgt>
   <wgt id='1008'> 0.15500E+04 </wgt>
   <wgt id='1009'> 0.17061E+04 </wgt>
  </rwgt>
  </event>
  <event>
  4      0 0.15478455E+04 0.30000000E+02 0.75467711E-02 0.13223652E+00
        4 -1    0    0  501    0 0.00000000E+00 0.00000000E+00 0.98008573E+01 0.99226661E+01 0.15500000E+01 0.0000E+00 0.9000E+01
       -4 -1    0    0    0  501 0.00000000E+00 0.00000000E+00 -.23010854E+02 0.23062998E+02 0.15500000E+01 0.0000E+00 0.9000E+01
      -11  1    1    2    0    0 0.97629709E+01 0.24204078E+01 0.57040856E+01 0.11563329E+02 0.51099893E-03 0.0000E+00 0.9000E+01
       11  1    1    2    0    0 -.97629709E+01 -.24204078E+01 -.18914082E+02 0.21422336E+02 0.51099893E-03 0.0000E+00 0.9000E+01
#aMCatNLO 1  0  0  1  1 0.43002349E+02 0.00000000E+00  9  5  0 0.00000000E+00 0.00000000E+00 0.00000000E+00 0.00000000E+00 0.00000000E+00
  <rwgt>
   <wgt id='1001'> 0.15478E+04 </wgt>
   <wgt id='1002'> 0.14172E+04 </wgt>
   <wgt id='1003'> 0.17307E+04 </wgt>
   <wgt id='1004'> 0.15286E+04 </wgt>
   <wgt id='1005'> 0.14535E+04 </wgt>
   <wgt id='1006'> 0.16336E+04 </wgt>
   <wgt id='1007'> 0.12424E+04 </wgt>
   <wgt id='1008'> 0.11092E+04 </wgt>
   <wgt id='1009'> 0.14288E+04 </wgt>
  </rwgt>
  </event>
  <event>
  5      0 0.15478455E+04 0.30000000E+02 0.75467711E-02 0.15621710E+00
       21 -1    0    0  502  501 0.00000000E+00 0.00000000E+00 0.17935179E+01 0.19440182E+01 0.75000000E+00 0.0000E+00 0.9000E+01
        2 -1    0    0  501    0 0.00000000E+00 0.00000000E+00 -.23641053E+03 0.23641075E+03 0.32000000E+00 0.0000E+00 0.9000E+01
      -11  1    1    2    0    0 0.14741203E+02 -.27639300E+01 -.13407461E+03 0.13491087E+03 0.51099893E-03 0.0000E+00 0.9000E+01
       11  1    1    2    0    0 -.81149989E+01 0.91256825E+01 -.31364106E+02 0.33657665E+02 0.51099893E-03 0.0000E+00 0.9000E+01
        2  1    1    2  502    0 -.66262041E+01 -.63617525E+01 -.69178303E+02 0.69786234E+02 0.32000000E+00 0.0000E+00 0.9000E+01
#aMCatNLO 2  0  0  1  2 0.91857758E+01 0.00000000E+00  9  5  0 0.00000000E+00 0.00000000E+00 0.00000000E+00 0.00000000E+00 0.00000000E+00
  <rwgt>
   <wgt id='1001'> 0.15479E+04 </wgt>
   <wgt id='1002'> 0.13579E+04 </wgt>
   <wgt id='1003'> 0.18021E+04 </wgt>
   <wgt id='1004'> 0.19052E+04 </wgt>
   <wgt id='1005'> 0.16714E+04 </wgt>
   <wgt id='1006'> 0.22180E+04 </wgt>
   <wgt id='1007'> 0.11599E+04 </wgt>
   <wgt id='1008'> 0.10175E+04 </wgt>
   <wgt id='1009'> 0.13503E+04 </wgt>
  </rwgt>
  </event>
  <event>
  5      0 0.15478455E+04 0.17583059E+02 0.75467711E-02 0.13511072E+00
        2 -1    0    0  501    0 0.00000000E+00 0.00000000E+00 0.27661754E+03 0.27661773E+03 0.32000000E+00 0.0000E+00 0.9000E+01
       -2 -1    0    0    0  501 0.00000000E+00 0.00000000E+00 -.75393087E+01 0.75460967E+01 0.32000000E+00 0.0000E+00 0.9000E+01
       23  2    1    2    0    0 0.00000000E+00 0.00000000E+00 0.26907823E+03 0.28416383E+03 0.91356353E+02 0.0000E+00 0.0000E+00
      -11  1    3    3    0    0 0.46223953E+01 0.38067071E+02 0.21174138E+03 0.21518569E+03 0.51099893E-03 0.0000E+00 0.9000E+01
       11  1    3    3    0    0 -.46223953E+01 -.38067071E+02 0.57336854E+02 0.68978136E+02 0.51099893E-03 0.0000E+00 0.9000E+01
#aMCatNLO 1  0  0  1  2 0.22391865E+01 0.00000000E+00  9  5  0 0.00000000E+00 0.00000000E+00 0.00000000E+00 0.00000000E+00 0.00000000E+00
  <rwgt>
   <wgt id='1001'> 0.15479E+04 </wgt>
   <wgt id='1002'> 0.14709E+04 </wgt>
   <wgt id='1003'> 0.16447E+04 </wgt>
   <wgt id='1004'> 0.19780E+04 </wgt>
   <wgt id='1005'> 0.18644E+04 </wgt>
   <wgt id='1006'> 0.21218E+04 </wgt>
   <wgt id='1007'> 0.11745E+04 </wgt>
   <wgt id='1008'> 0.11269E+04 </wgt>
   <wgt id='1009'> 0.12340E+04 </wgt>
  </rwgt>
  </event>
  <event>
  5      0 0.15478455E+04 0.36931994E+02 0.75467711E-02 0.13552984E+00
       -1 -1    0    0    0  501 0.00000000E+00 0.00000000E+00 0.27087048E+01 0.27275413E+01 0.32000000E+00 0.0000E+00 0.9000E+01
        1 -1    0    0  501    0 0.00000000E+00 0.00000000E+00 -.77729160E+03 0.77729167E+03 0.32000000E+00 0.0000E+00 0.9000E+01
       23  2    1    2    0    0 0.00000000E+00 0.00000000E+00 -.77458290E+03 0.78001921E+03 0.91930963E+02 0.0000E+00 0.0000E+00
      -11  1    3    3    0    0 -.90527945E+01 0.35805294E+02 -.15510232E+03 0.15943871E+03 0.51099893E-03 0.0000E+00 0.9000E+01
       11  1    3    3    0    0 0.90527945E+01 -.35805294E+02 -.61948058E+03 0.62058050E+03 0.51099893E-03 0.0000E+00 0.9000E+01
#aMCatNLO 1  0  0  1  2 0.36217146E+01 0.00000000E+00  9  5  0 0.00000000E+00 0.00000000E+00 0.00000000E+00 0.00000000E+00 0.00000000E+00
  <rwgt>
   <wgt id='1001'> 0.15479E+04 </wgt>
   <wgt id='1002'> 0.15159E+04 </wgt>
   <wgt id='1003'> 0.15886E+04 </wgt>
   <wgt id='1004'> 0.16583E+04 </wgt>
   <wgt id='1005'> 0.16255E+04 </wgt>
   <wgt id='1006'> 0.17001E+04 </wgt>
   <wgt id='1007'> 0.14057E+04 </wgt>
   <wgt id='1008'> 0.13759E+04 </wgt>
   <wgt id='1009'> 0.14440E+04 </wgt>
  </rwgt>
  </event>
  <event>
  5      0 0.15478455E+04 0.46114220E+02 0.75467711E-02 0.12476926E+00
       -3 -1    0    0    0  501 0.00000000E+00 0.00000000E+00 0.38461061E+02 0.38464311E+02 0.50000000E+00 0.0000E+00 0.9000E+01
        3 -1    0    0  501    0 0.00000000E+00 0.00000000E+00 -.55291180E+02 0.55293441E+02 0.50000000E+00 0.0000E+00 0.9000E+01
       23  2    1    2    0    0 0.00000000E+00 0.00000000E+00 -.16830119E+02 0.93757752E+02 0.92234827E+02 0.0000E+00 0.0000E+00
      -11  1    3    3    0    0 -.32481062E+02 -.32733803E+02 -.78633660E+01 0.46779844E+02 0.51099893E-03 0.0000E+00 0.9000E+01
       11  1    3    3    0    0 0.32481062E+02 0.32733803E+02 -.89667529E+01 0.46977909E+02 0.51099893E-03 0.0000E+00 0.9000E+01
#aMCatNLO 1  0  0  1  2 0.30259024E+02 0.00000000E+00  9  5  0 0.00000000E+00 0.00000000E+00 0.00000000E+00 0.00000000E+00 0.00000000E+00
  <rwgt>
   <wgt id='1001'> 0.15479E+04 </wgt>
   <wgt id='1002'> 0.15383E+04 </wgt>
   <wgt id='1003'> 0.15600E+04 </wgt>
   <wgt id='1004'> 0.18250E+04 </wgt>
   <wgt id='1005'> 0.18059E+04 </wgt>
   <wgt id='1006'> 0.18495E+04 </wgt>
   <wgt id='1007'> 0.13251E+04 </wgt>
   <wgt id='1008'> 0.13167E+04 </wgt>
   <wgt id='1009'> 0.13359E+04 </wgt>
  </rwgt>
  </event>
  <event>
  5      0 0.15478455E+04 0.35083365E+02 0.75467711E-02 0.12141802E+00
        1 -1    0    0  501    0 0.00000000E+00 0.00000000E+00 0.18331071E+03 0.18331099E+03 0.32000000E+00 0.0000E+00 0.9000E+01
       -1 -1    0    0    0  501 0.00000000E+00 0.00000000E+00 -.12445520E+02 0.12449633E+02 0.32000000E+00 0.0000E+00 0.9000E+01
       23  2    1    2    0    0 0.00000000E+00 0.00000000E+00 0.17086519E+03 0.19576063E+03 0.95536947E+02 0.0000E+00 0.0000E+00
      -11  1    3    3    0    0 -.34953110E+02 0.30203583E+01 0.19004447E+02 0.39900019E+02 0.51099893E-03 0.0000E+00 0.9000E+01
       11  1    3    3    0    0 0.34953110E+02 -.30203583E+01 0.15186075E+03 0.15586061E+03 0.51099893E-03 0.0000E+00 0.9000E+01
#aMCatNLO 1  0  0  1  1 0.59758024E+02 0.00000000E+00  9  5  0 0.00000000E+00 0.00000000E+00 0.00000000E+00 0.00000000E+00 0.00000000E+00
  <rwgt>
   <wgt id='1001'> 0.15478E+04 </wgt>
   <wgt id='1002'> 0.15395E+04 </wgt>
   <wgt id='1003'> 0.15585E+04 </wgt>
   <wgt id='1004'> 0.13573E+04 </wgt>
   <wgt id='1005'> 0.13869E+04 </wgt>
   <wgt id='1006'> 0.13193E+04 </wgt>
   <wgt id='1007'> 0.16799E+04 </wgt>
   <wgt id='1008'> 0.16375E+04 </wgt>
   <wgt id='1009'> 0.17348E+04 </wgt>
  </rwgt>
  </event>
  <event>
  5      0 0.15478455E+04 0.24075592E+02 0.75467711E-02 0.12906595E+00
        2 -1    0    0  501    0 0.00000000E+00 0.00000000E+00 0.10707771E+04 0.10707772E+04 0.32000000E+00 0.0000E+00 0.9000E+01
       -2 -1    0    0    0  501 0.00000000E+00 0.00000000E+00 -.18885629E+01 0.19154816E+01 0.32000000E+00 0.0000E+00 0.9000E+01
       23  2    1    2    0    0 0.00000000E+00 0.00000000E+00 0.10688885E+04 0.10726926E+04 0.90259473E+02 0.0000E+00 0.0000E+00
      -11  1    3    3    0    0 -.50326253E+00 0.45119854E+02 0.54394128E+03 0.54580964E+03 0.51099893E-03 0.0000E+00 0.9000E+01
       11  1    3    3    0    0 0.50326253E+00 -.45119854E+02 0.52494727E+03 0.52688299E+03 0.51099893E-03 0.0000E+00 0.9000E+01
#aMCatNLO 1  0  0  2  1 0.12324408E+02 0.00000000E+00  9  5  0 0.00000000E+00 0.00000000E+00 0.00000000E+00 0.00000000E+00 0.00000000E+00
  <rwgt>
   <wgt id='1001'> 0.15479E+04 </wgt>
   <wgt id='1002'> 0.15133E+04 </wgt>
   <wgt id='1003'> 0.15908E+04 </wgt>
   <wgt id='1004'> 0.13272E+04 </wgt>
   <wgt id='1005'> 0.13257E+04 </wgt>
   <wgt id='1006'> 0.13280E+04 </wgt>
   <wgt id='1007'> 0.17068E+04 </wgt>
   <wgt id='1008'> 0.16437E+04 </wgt>
   <wgt id='1009'> 0.17863E+04 </wgt>
  </rwgt>
  </event>
  <event>
  5      0 0.15478455E+04 0.40710325E+02 0.75467711E-02 0.11562084E+00
       -3 -1    0    0    0  501 0.00000000E+00 0.00000000E+00 0.89728252E+02 0.89729645E+02 0.50000000E+00 0.0000E+00 0.9000E+01
        3 -1    0    0  501    0 0.00000000E+00 0.00000000E+00 -.19896352E+02 0.19902634E+02 0.50000000E+00 0.0000E+00 0.9000E+01
       23  2    1    2    0    0 0.00000000E+00 0.00000000E+00 0.69831900E+02 0.10963228E+03 0.84514746E+02 0.0000E+00 0.0000E+00
      -11  1    3    3    0    0 0.75401827E+01 0.40005952E+02 0.20219502E+02 0.45455020E+02 0.51099893E-03 0.0000E+00 0.9000E+01
       11  1    3    3    0    0 -.75401827E+01 -.40005952E+02 0.49612398E+02 0.64177259E+02 0.51099893E-03 0.0000E+00 0.9000E+01
#aMCatNLO 1  0  0  1  2 0.89016627E+02 0.00000000E+00  9  5  0 0.00000000E+00 0.00000000E+00 0.00000000E+00 0.00000000E+00 0.00000000E+00
  <rwgt>
   <wgt id='1001'> 0.15479E+04 </wgt>
   <wgt id='1002'> 0.15467E+04 </wgt>
   <wgt id='1003'> 0.15494E+04 </wgt>
   <wgt id='1004'> 0.17459E+04 </wgt>
   <wgt id='1005'> 0.17462E+04 </wgt>
   <wgt id='1006'> 0.17454E+04 </wgt>
   <wgt id='1007'> 0.13175E+04 </wgt>
   <wgt id='1008'> 0.13153E+04 </wgt>
   <wgt id='1009'> 0.13204E+04 </wgt>
  </rwgt>
  </event>
  <event>
  5      0 -.15478455E+04 0.34158788E+02 0.75467711E-02 0.12403997E+00
       -2 -1    0    0    0  501 0.00000000E+00 0.00000000E+00 0.26933106E+01 0.27122540E+01 0.32000000E+00 0.0000E+00 0.9000E+01
        2 -1    0    0  501    0 0.00000000E+00 0.00000000E+00 -.77579964E+03 0.77579970E+03 0.32000000E+00 0.0000E+00 0.9000E+01
       23  2    1    2    0    0 0.00000000E+00 0.00000000E+00 -.77310632E+03 0.77851196E+03 0.91583160E+02 0.0000E+00 0.0000E+00
      -11  1    3    3    0    0 -.30237746E+02 0.34192140E+02 -.35538354E+03 0.35830278E+03 0.51099893E-03 0.0000E+00 0.9000E+01
       11  1    3    3    0    0 0.30237746E+02 -.34192140E+02 -.41772279E+03 0.42020918E+03 0.51099893E-03 0.0000E+00 0.9000E+01
#aMCatNLO 1  0  0  1  2 0.34512650E+02 0.00000000E+00  9  5  0 0.00000000E+00 0.00000000E+00 0.00000000E+00 0.00000000E+00 0.00000000E+00
  <rwgt>
   <wgt id='1001'> -.15479E+04 </wgt>
   <wgt id='1002'> -.13317E+04 </wgt>
   <wgt id='1003'> -.18241E+04 </wgt>
   <wgt id='1004'> -.16913E+04 </wgt>
   <wgt id='1005'> -.14555E+04 </wgt>
   <wgt id='1006'> -.19925E+04 </wgt>
   <wgt id='1007'> -.13829E+04 </wgt>
   <wgt id='1008'> -.11894E+04 </wgt>
   <wgt id='1009'> -.16302E+04 </wgt>
  </rwgt>
  </event>
  <event>
  5      0 0.15478455E+04 0.19786955E+02 0.75467711E-02 0.14340101E+00
        2 -1    0    0  501    0 0.00000000E+00 0.00000000E+00 0.21739415E+03 0.21739438E+03 0.32000000E+00 0.0000E+00 0.9000E+01
       -2 -1    0    0    0  501 0.00000000E+00 0.00000000E+00 -.95805280E+01 0.95858707E+01 0.32000000E+00 0.0000E+00 0.9000E+01
       23  2    1    2    0    0 0.00000000E+00 0.00000000E+00 0.20781362E+03 0.22698025E+03 0.91288198E+02 0.0000E+00 0.0000E+00
      -11  1    3    3    0    0 0.59415290E+01 -.14262430E+02 0.21069721E+03 0.21126295E+03 0.51099893E-03 0.0000E+00 0.9000E+01
       11  1    3    3    0    0 -.59415290E+01 0.14262430E+02 -.28835889E+01 0.15717308E+02 0.51099893E-03 0.0000E+00 0.9000E+01
#aMCatNLO 1  0  0  2  1 0.23766504E+02 0.00000000E+00  9  5  0 0.00000000E+00 0.00000000E+00 0.00000000E+00 0.00000000E+00 0.00000000E+00
  <rwgt>
   <wgt id='1001'> 0.15479E+04 </wgt>
   <wgt id='1002'> 0.15254E+04 </wgt>
   <wgt id='1003'> 0.15770E+04 </wgt>
   <wgt id='1004'> 0.16038E+04 </wgt>
   <wgt id='1005'> 0.16004E+04 </wgt>
   <wgt id='1006'> 0.16071E+04 </wgt>
   <wgt id='1007'> 0.14431E+04 </wgt>
   <wgt id='1008'> 0.14043E+04 </wgt>
   <wgt id='1009'> 0.14946E+04 </wgt>
  </rwgt>
  </event>
  <event>
  5      0 0.15478455E+04 0.30000000E+02 0.75467711E-02 0.11823146E+00
       -2 -1    0    0    0  501 0.00000000E+00 0.00000000E+00 0.13075329E+01 0.13461212E+01 0.32000000E+00 0.0000E+00 0.9000E+01
        2 -1    0    0  501    0 0.00000000E+00 0.00000000E+00 -.15417043E+04 0.15417043E+04 0.32000000E+00 0.0000E+00 0.9000E+01
       23  2    1    2    0    0 0.00000000E+00 0.00000000E+00 -.15403967E+04 0.15430504E+04 0.90457199E+02 0.0000E+00 0.0000E+00
      -11  1    3    3    0    0 -.74286998E+00 -.42409984E+01 -.15382197E+04 0.15382258E+04 0.51099893E-03 0.0000E+00 0.9000E+01
       11  1    3    3    0    0 0.74286998E+00 0.42409984E+01 -.21769798E+01 0.48246414E+01 0.51099893E-03 0.0000E+00 0.9000E+01
#aMCatNLO 1  0  0  1  2 0.89901133E+02 0.00000000E+00  9  5  0 0.00000000E+00 0.00000000E+00 0.00000000E+00 0.00000000E+00 0.00000000E+00
  <rwgt>
   <wgt id='1001'> 0.15479E+04 </wgt>
   <wgt id='1002'> 0.13385E+04 </wgt>
   <wgt id='1003'> 0.19148E+04 </wgt>
   <wgt id='1004'> 0.14843E+04 </wgt>
   <wgt id='1005'> 0.12954E+04 </wgt>
   <wgt id='1006'> 0.18157E+04 </wgt>
   <wgt id='1007'> 0.13735E+04 </wgt>
   <wgt id='1008'> 0.11829E+04 </wgt>
   <wgt id='1009'> 0.17076E+04 </wgt>
  </rwgt>
  </event>
  <event>
  5      0 0.15478455E+04 0.18261696E+02 0.75467711E-02 0.14673448E+00
        3 -1    0    0  501    0 0.00000000E+00 0.00000000E+00 0.70217905E+02 0.70219686E+02 0.50000000E+00 0.0000E+00 0.9000E+01
       -3 -1    0    0    0  501 0.00000000E+00 0.00000000E+00 -.30355924E+02 0.30360041E+02 0.50000000E+00 0.0000E+00 0.9000E+01
       23  2    1    2    0    0 0.00000000E+00 0.00000000E+00 0.39861982E+02 0.10057973E+03 0.92343402E+02 0.0000E+00 0.0000E+00
      -11  1    3    3    0    0 0.17927590E+02 -.75881359E+01 -.25670251E+02 0.32217077E+02 0.51099893E-03 0.0000E+00 0.9000E+01
       11  1    3    3    0    0 -.17927590E+02 0.75881359E+01 0.65532233E+02 0.68362649E+02 0.51099893E-03 0.0000E+00 0.9000E+01
#aMCatNLO 1  0  0  1  2 0.10880738E+02 0.00000000E+00  9  5  0 0.00000000E+00 0.00000000E+00 0.00000000E+00 0.00000000E+00 0.00000000E+00
  <rwgt>
   <wgt id='1001'> 0.15478E+04 </wgt>
   <wgt id='1002'> 0.14842E+04 </wgt>
   <wgt id='1003'> 0.16257E+04 </wgt>
   <wgt id='1004'> 0.16516E+04 </wgt>
   <wgt id='1005'> 0.15974E+04 </wgt>
   <wgt id='1006'> 0.17163E+04 </wgt>
   <wgt id='1007'> 0.14720E+04 </wgt>
   <wgt id='1008'> 0.13927E+04 </wgt>
   <wgt id='1009'> 0.15718E+04 </wgt>
  </rwgt>
  </event>
  <event>
  4      0 0.15478455E+04 0.28340766E+02 0.75467711E-02 0.15095478E+00
       -2 -1    0    0    0  501 0.00000000E+00 0.00000000E+00 0.57187318E+01 0.57276778E+01 0.32000000E+00 0.0000E+00 0.9000E+01
        2 -1    0    0  501    0 0.00000000E+00 0.00000000E+00 -.82509677E+02 0.82510298E+02 0.32000000E+00 0.0000E+00 0.9000E+01
      -11  1    1    2    0    0 -.13551719E+02 -.16782929E+02 -.33040728E+02 0.39458909E+02 0.51099893E-03 0.0000E+00 0.9000E+01
       11  1    1    2    0    0 0.13551719E+02 0.16782929E+02 -.43750217E+02 0.48779066E+02 0.51099893E-03 0.0000E+00 0.9000E+01
#aMCatNLO 1  0  0  1  1 0.95499544E-01 0.00000000E+00  9  5  0 0.00000000E+00 0.00000000E+00 0.00000000E+00 0.00000000E+00 0.00000000E+00
  <rwgt>
   <wgt id='1001'> 0.15479E+04 </wgt>
   <wgt id='1002'> 0.14923E+04 </wgt>
   <wgt id='1003'> 0.16206E+04 </wgt>
   <wgt id='1004'> 0.18269E+04 </wgt>
   <wgt id='1005'> 0.17629E+04 </wgt>
   <wgt id='1006'> 0.19108E+04 </wgt>
   <wgt id='1007'> 0.12411E+04 </wgt>
   <wgt id='1008'> 0.11961E+04 </wgt>
   <wgt id='1009'> 0.13000E+04 </wgt>
  </rwgt>
  </event>
  <event>
  5      0 -.15478455E+04 0.25566849E+02 0.75467711E-02 0.16935206E+00
       -2 -1    0    0    0  501 0.00000000E+00 0.00000000E+00 0.18096343E+01 0.18377095E+01 0.32000000E+00 0.0000E+00 0.9000E+01
        2 -1    0    0  501    0 0.00000000E+00 0.00000000E+00 -.11377111E+04 0.11377112E+04 0.32000000E+00 0.0000E+00 0.9000E+01
       23  2    1    2    0    0 0.00000000E+00 0.00000000E+00 -.11359015E+04 0.11395489E+04 0.91101330E+02 0.0000E+00 0.0000E+00
      -11  1    3    3    0    0 -.52774053E+01 -.11243501E+02 -.19766912E+02 0.23345195E+02 0.51099893E-03 0.0000E+00 0.9000E+01
       11  1    3    3    0    0 0.52774053E+01 0.11243501E+02 -.11161346E+04 0.11162037E+04 0.51099893E-03 0.0000E+00 0.9000E+01
#aMCatNLO 1  0  0  1  1 0.95499544E-01 0.00000000E+00  9  5  0 0.00000000E+00 0.00000000E+00 0.00000000E+00 0.00000000E+00 0.00000000E+00
  <rwgt>
   <wgt id='1001'> -.15479E+04 </wgt>
   <wgt id='1002'> -.13432E+04 </wgt>
   <wgt id='1003'> -.18292E+04 </wgt>
   <wgt id='1004'> -.17475E+04 </wgt>
   <wgt id='1005'> -.15166E+04 </wgt>
   <wgt id='1006'> -.20651E+04 </wgt>
   <wgt id='1007'> -.13098E+04 </wgt>
   <wgt id='1008'> -.11367E+04 </wgt>
   <wgt id='1009'> -.15479E+04 </wgt>
  </rwgt>
  </event>
  <event>
  5      0 0.15478455E+04 0.41149839E+02 0.75467711E-02 0.10802709E+00
        1 -1    0    0  501    0 0.00000000E+00 0.00000000E+00 0.18427467E+03 0.18427495E+03 0.32000000E+00 0.0000E+00 0.9000E+01
       -1 -1    0    0    0  501 0.00000000E+00 0.00000000E+00 -.12699976E+02 0.12704007E+02 0.32000000E+00 0.0000E+00 0.9000E+01
       23  2    1    2    0    0 0.00000000E+00 0.00000000E+00 0.17157469E+03 0.19697895E+03 0.96761733E+02 0.0000E+00 0.0000E+00
      -11  1    3    3    0    0 0.40319140E+02 -.82265532E+01 0.13758406E+03 0.14360600E+03 0.51099893E-03 0.0000E+00 0.9000E+01
       11  1    3    3    0    0 -.40319140E+02 0.82265532E+01 0.33990635E+02 0.53372957E+02 0.51099893E-03 0.0000E+00 0.9000E+01
#aMCatNLO 1  0  0  2  2 0.15957233E+03 0.00000000E+00  9  5  0 0.00000000E+00 0.00000000E+00 0.00000000E+00 0.00000000E+00 0.00000000E+00
  <rwgt>
   <wgt id='1001'> 0.15478E+04 </wgt>
   <wgt id='1002'> 0.15056E+04 </wgt>
   <wgt id='1003'> 0.16019E+04 </wgt>
   <wgt id='1004'> 0.14364E+04 </wgt>
   <wgt id='1005'> 0.14182E+04 </wgt>
   <wgt id='1006'> 0.14598E+04 </wgt>
   <wgt id='1007'> 0.16465E+04 </wgt>
   <wgt id='1008'> 0.15797E+04 </wgt>
   <wgt id='1009'> 0.17321E+04 </wgt>
  </rwgt>
  </event>
  <event>
  5      0 0.15478455E+04 0.25050909E+02 0.75467711E-02 0.14261033E+00
        1 -1    0    0  501    0 0.00000000E+00 0.00000000E+00 0.10846509E+02 0.10851229E+02 0.32000000E+00 0.0000E+00 0.9000E+01
       -1 -1    0    0    0  501 0.00000000E+00 0.00000000E+00 -.19066101E+03 0.19066128E+03 0.32000000E+00 0.0000E+00 0.9000E+01
       23  2    1    2    0    0 0.00000000E+00 0.00000000E+00 -.17981450E+03 0.20151251E+03 0.90961729E+02 0.0000E+00 0.0000E+00
      -11  1    3    3    0    0 -.17251790E+02 -.22609984E+02 -.16853436E+03 0.17091713E+03 0.51099893E-03 0.0000E+00 0.9000E+01
       11  1    3    3    0    0 0.17251790E+02 0.22609984E+02 -.11280148E+02 0.30595382E+02 0.51099893E-03 0.0000E+00 0.9000E+01
#aMCatNLO 1  0  0  2  1 0.14770986E+01 0.00000000E+00  9  5  0 0.00000000E+00 0.00000000E+00 0.00000000E+00 0.00000000E+00 0.00000000E+00
  <rwgt>
   <wgt id='1001'> 0.15478E+04 </wgt>
   <wgt id='1002'> 0.15911E+04 </wgt>
   <wgt id='1003'> 0.14873E+04 </wgt>
   <wgt id='1004'> 0.18735E+04 </wgt>
   <wgt id='1005'> 0.19049E+04 </wgt>
   <wgt id='1006'> 0.18281E+04 </wgt>
   <wgt id='1007'> 0.13356E+04 </wgt>
   <wgt id='1008'> 0.13736E+04 </wgt>
   <wgt id='1009'> 0.12826E+04 </wgt>
  </rwgt>
  </event>
  <event>
  5      0 0.15478455E+04 0.18417877E+02 0.75467711E-02 0.12647664E+00
       -2 -1    0    0    0  501 0.00000000E+00 0.00000000E+00 0.17373764E+02 0.17376711E+02 0.32000000E+00 0.0000E+00 0.9000E+01
        2 -1    0    0  501    0 0.00000000E+00 0.00000000E+00 -.12474273E+03 0.12474314E+03 0.32000000E+00 0.0000E+00 0.9000E+01
       23  2    1    2    0    0 0.00000000E+00 0.00000000E+00 -.10736897E+03 0.14211985E+03 0.93112606E+02 0.0000E+00 0.0000E+00
      -11  1    3    3    0    0 0.19184593E+02 0.32610542E+02 -.95092383E+02 0.10234284E+03 0.51099893E-03 0.0000E+00 0.9000E+01
       11  1    3    3    0    0 -.19184593E+02 -.32610542E+02 -.12276584E+02 0.39777010E+02 0.51099893E-03 0.0000E+00 0.9000E+01
#aMCatNLO 1  0  0  1  2 0.34744857E+02 0.00000000E+00  9  5  0 0.00000000E+00 0.00000000E+00 0.00000000E+00 0.00000000E+00 0.00000000E+00
  <rwgt>
   <wgt id='1001'> 0.15479E+04 </wgt>
   <wgt id='1002'> 0.15821E+04 </wgt>
   <wgt id='1003'> 0.15038E+04 </wgt>
   <wgt id='1004'> 0.80877E+03 </wgt>
   <wgt id='1005'> 0.94420E+03 </wgt>
   <wgt id='1006'> 0.63473E+03 </wgt>
   <wgt id='1007'> 0.21387E+04 </wgt>
   <wgt id='1008'> 0.20848E+04 </wgt>
   <wgt id='1009'> 0.22079E+04 </wgt>
  </rwgt>
  </event>
  <event>
  5      0 0.15478455E+04 0.45949492E+02 0.75467711E-02 0.11729980E+00
       -1 -1    0    0    0  501 0.00000000E+00 0.00000000E+00 0.11733572E+02 0.11737935E+02 0.32000000E+00 0.0000E+00 0.9000E+01
        1 -1    0    0  501    0 0.00000000E+00 0.00000000E+00 -.18035303E+03 0.18035331E+03 0.32000000E+00 0.0000E+00 0.9000E+01
       23  2    1    2    0    0 0.00000000E+00 0.00000000E+00 -.16861945E+03 0.19209124E+03 0.92013728E+02 0.0000E+00 0.0000E+00
      -11  1    3    3    0    0 0.28204569E+02 0.36274759E+02 -.89104794E+02 0.10025478E+03 0.51099893E-03 0.0000E+00 0.9000E+01
       11  1    3    3    0    0 -.28204569E+02 -.36274759E+02 -.79514660E+02 0.91836469E+02 0.51099893E-03 0.0000E+00 0.9000E+01
#aMCatNLO 1  0  0  1  1 0.72616497E+02 0.00000000E+00  9  5  0 0.00000000E+00 0.00000000E+00 0.00000000E+00 0.00000000E+00 0.00000000E+00
  <rwgt>
   <wgt id='1001'> 0.15479E+04 </wgt>
   <wgt id='1002'> 0.15208E+04 </wgt>
   <wgt id='1003'> 0.15822E+04 </wgt>
   <wgt id='1004'> 0.12158E+04 </wgt>
   <wgt id='1005'> 0.12367E+04 </wgt>
   <wgt id='1006'> 0.11890E+04 </wgt>
   <wgt id='1007'> 0.18216E+04 </wgt>
   <wgt id='1008'> 0.17507E+04 </wgt>
   <wgt id='1009'> 0.19121E+04 </wgt>
  </rwgt>
  </event>
  <event>
  6      0 0.15478455E+04 0.43705649E+02 0.75467711E-02 0.13072397E+00
        2 -1    0    0  501    0 0.00000000E+00 0.00000000E+00 0.32929382E+03 0.32929398E+03 0.32000000E+00 0.0000E+00 0.9000E+01
       -2 -1    0    0    0  502 0.00000000E+00 0.00000000E+00 -.95422113E+01 0.95475754E+01 0.32000000E+00 0.0000E+00 0.9000E+01
       23  2    1    2    0    0 0.79808627E+01 -.73497760E+00 0.25141270E+03 0.27003019E+03 0.98202463E+02 0.0000E+00 0.0000E+00
      -11  1    3    3    0    0 0.19922502E+02 0.40342788E+02 0.18955222E+03 0.19481912E+03 0.51099893E-03 0.0000E+00 0.9000E+01
       11  1    3    3    0    0 -.11941640E+02 -.41077766E+02 0.61860478E+02 0.75211065E+02 0.51099893E-03 0.0000E+00 0.9000E+01
       21  1    1    2  501  502 -.79808627E+01 0.73497760E+00 0.68338916E+02 0.68811368E+02 0.75000000E+00 0.0000E+00 0.9000E+01
#aMCatNLO 2  0  0  2  1 0.80146342E+01 0.00000000E+00  9  5  0 0.00000000E+00 0.00000000E+00 0.00000000E+00 0.00000000E+00 0.00000000E+00
  <rwgt>
   <wgt id='1001'> 0.15479E+04 </wgt>
   <wgt id='1002'> 0.13869E+04 </wgt>
   <wgt id='1003'> 0.17524E+04 </wgt>
   <wgt id='1004'> 0.16818E+04 </wgt>
   <wgt id='1005'> 0.15069E+04 </wgt>
   <wgt id='1006'> 0.19040E+04 </wgt>
   <wgt id='1007'> 0.13920E+04 </wgt>
   <wgt id='1008'> 0.12472E+04 </wgt>
   <wgt id='1009'> 0.15759E+04 </wgt>
  </rwgt>
  </event>
  <event>
  4      0 0.15478455E+04 0.30000000E+02 0.75467711E-02 0.15344045E+00
        2 -1    0    0  501    0 0.00000000E+00 0.00000000E+00 0.42769122E+02 0.42770319E+02 0.32000000E+00 0.0000E+00 0.9000E+01
       -2 -1    0    0    0  501 0.00000000E+00 0.00000000E+00 -.62731106E+01 0.62812671E+01 0.32000000E+00 0.0000E+00 0.9000E+01
      -11  1    1    2    0    0 0.69446382E+00 -.48605461E+01 -.51509841E+01 0.71161665E+01 0.51099893E-03 0.0000E+00 0.9000E+01
       11  1    1    2    0    0 -.69446382E+00 0.48605461E+01 0.41646995E+02 0.41935419E+02 0.51099893E-03 0.0000E+00 0.9000E+01
#aMCatNLO 1  0  0  1  2 0.19861526E+02 0.00000000E+00  9  5  0 0.00000000E+00 0.00000000E+00 0.00000000E+00 0.00000000E+00 0.00000000E+00
  <rwgt>
   <wgt id='1001'> 0.15478E+04 </wgt>
   <wgt id='1002'> 0.13909E+04 </wgt>
   <wgt id='1003'> 0.18142E+04 </wgt>
   <wgt id='1004'> 0.13978E+04 </wgt>
   <wgt id='1005'> 0.13054E+04 </wgt>
   <wgt id='1006'> 0.15548E+04 </wgt>
   <wgt id='1007'> 0.13697E+04 </wgt>
   <wgt id='1008'> 0.12046E+04 </wgt>
   <wgt id='1009'> 0.16500E+04 </wgt>
  </rwgt>
  </event>
  <event>
  5      0 0.15478455E+04 0.39836176E+02 0.75467711E-02 0.91765067E-01
       -2 -1    0    0    0  501 0.00000000E+00 0.00000000E+00 0.94142239E+01 0.94196609E+01 0.32000000E+00 0.0000E+00 0.9000E+01
        2 -1    0    0  501    0 0.00000000E+00 0.00000000E+00 -.22325829E+03 0.22325852E+03 0.32000000E+00 0.0000E+00 0.9000E+01
       23  2    1    2    0    0 0.00000000E+00 0.00000000E+00 -.21384407E+03 0.23267818E+03 0.91705240E+02 0.0000E+00 0.0000E+00
      -11  1    3    3    0    0 -.17625377E+02 -.35724879E+02 -.16453145E+03 0.16928532E+03 0.51099893E-03 0.0000E+00 0.9000E+01
       11  1    3    3    0    0 0.17625377E+02 0.35724879E+02 -.49312618E+02 0.63392864E+02 0.51099893E-03 0.0000E+00 0.9000E+01
#aMCatNLO 1  0  0  2  2 0.69985578E+03 0.00000000E+00  9  5  0 0.00000000E+00 0.00000000E+00 0.00000000E+00 0.00000000E+00 0.00000000E+00
  <rwgt>
   <wgt id='1001'> 0.15479E+04 </wgt>
   <wgt id='1002'> 0.15499E+04 </wgt>
   <wgt id='1003'> 0.15453E+04 </wgt>
   <wgt id='1004'> 0.16957E+04 </wgt>
   <wgt id='1005'> 0.16996E+04 </wgt>
   <wgt id='1006'> 0.16908E+04 </wgt>
   <wgt id='1007'> 0.13744E+04 </wgt>
   <wgt id='1008'> 0.13748E+04 </wgt>
   <wgt id='1009'> 0.13738E+04 </wgt>
  </rwgt>
  </event>
  <event>
  4      0 0.15478455E+04 0.30000000E+02 0.75467711E-02 0.11614068E+00
       -3 -1    0    0    0  501 0.00000000E+00 0.00000000E+00 0.11072209E+03 0.11072322E+03 0.50000000E+00 0.0000E+00 0.9000E+01
        3 -1    0    0  501    0 0.00000000E+00 0.00000000E+00 -.39415855E+01 0.39731721E+01 0.50000000E+00 0.0000E+00 0.9000E+01
      -11  1    1    2    0    0 -.10075953E+02 -.51702739E+01 0.51572188E+01 0.12444013E+02 0.51099893E-03 0.0000E+00 0.9000E+01
       11  1    1    2    0    0 0.10075953E+02 0.51702739E+01 0.10162329E+03 0.10225238E+03 0.51099893E-03 0.0000E+00 0.9000E+01
#aMCatNLO 1  0  0  1  2 0.10019147E+03 0.00000000E+00  9  5  0 0.00000000E+00 0.00000000E+00 0.00000000E+00 0.00000000E+00 0.00000000E+00
  <rwgt>
   <wgt id='1001'> 0.15478E+04 </wgt>
   <wgt id='1002'> 0.15427E+04 </wgt>
   <wgt id='1003'> 0.15550E+04 </wgt>
   <wgt id='1004'> 0.20098E+04 </wgt>
   <wgt id='1005'> 0.20061E+04 </wgt>
   <wgt id='1006'> 0.20149E+04 </wgt>
   <wgt id='1007'> 0.10718E+04 </wgt>
   <wgt id='1008'> 0.10667E+04 </wgt>
   <wgt id='1009'> 0.10789E+04 </wgt>
  </rwgt>
  </event>
  <event>
  5      0 0.15478455E+04 0.25226086E+02 0.75467711E-02 0.12704817E+00
       -2 -1    0    0    0  501 0.00000000E+00 0.00000000E+00 0.11541722E+02 0.11546157E+02 0.32000000E+00 0.0000E+00 0.9000E+01
        2 -1    0    0  501    0 0.00000000E+00 0.00000000E+00 -.18280615E+03 0.18280643E+03 0.32000000E+00 0.0000E+00 0.9000E+01
       23  2    1    2    0    0 0.00000000E+00 0.00000000E+00 -.17126443E+03 0.19435258E+03 0.91877221E+02 0.0000E+00 0.0000E+00
      -11  1    3    3    0    0 -.25280095E+02 -.30871925E+02 -.13378594E+03 0.13960959E+03 0.51099893E-03 0.0000E+00 0.9000E+01
       11  1    3    3    0    0 0.25280095E+02 0.30871925E+02 -.37478485E+02 0.54742998E+02 0.51099893E-03 0.0000E+00 0.9000E+01
#aMCatNLO 1  0  0  1  2 0.29892874E+02 0.00000000E+00  9  5  0 0.00000000E+00 0.00000000E+00 0.00000000E+00 0.00000000E+00 0.00000000E+00
  <rwgt>
   <wgt id='1001'> 0.15479E+04 </wgt>
   <wgt id='1002'> 0.28141E+04 </wgt>
   <wgt id='1003'> -.84221E+02 </wgt>
   <wgt id='1004'> -.32352E+04 </wgt>
   <wgt id='1005'> -.13077E+04 </wgt>
   <wgt id='1006'> -.57152E+04 </wgt>
   <wgt id='1007'> 0.57139E+04 </wgt>
   <wgt id='1008'> 0.63638E+04 </wgt>
   <wgt id='1009'> 0.48722E+04 </wgt>
  </rwgt>
  </event>
  <event>
  6      0 0.15478455E+04 0.35766909E+02 0.75467711E-02 0.13345978E+00
       -2 -1    0    0    0  501 0.00000000E+00 0.00000000E+00 0.33680015E+01 0.33831692E+01 0.32000000E+00 0.0000E+00 0.9000E+01
       21 -1    0    0  501  502 0.00000000E+00 0.00000000E+00 -.81858116E+03 0.81858151E+03 0.75000000E+00 0.0000E+00 0.9000E+01
       23  2    1    2    0    0 0.56548762E+01 -.11166978E+02 -.73506017E+03 0.74083956E+03 0.91504807E+02 0.0000E+00 0.0000E+00
      -11  1    3    3    0    0 0.30212829E+02 -.29028445E+02 -.17457701E+03 0.17953439E+03 0.51099893E-03 0.0000E+00 0.9000E+01
       11  1    3    3    0    0 -.24557953E+02 0.17861467E+02 -.56048315E+03 0.56130517E+03 0.51099893E-03 0.0000E+00 0.9000E+01
       -2  1    1    2    0  502 -.56548762E+01 0.11166978E+02 -.80152996E+02 0.81125114E+02 0.32000000E+00 0.0000E+00 0.9000E+01
#aMCatNLO 2  0  0  2  2 0.12517149E+02 0.00000000E+00  9  5  0 0.00000000E+00 0.00000000E+00 0.00000000E+00 0.00000000E+00 0.00000000E+00
  <rwgt>
   <wgt id='1001'> 0.15479E+04 </wgt>
   <wgt id='1002'> 0.13838E+04 </wgt>
   <wgt id='1003'> 0.17575E+04 </wgt>
   <wgt id='1004'> 0.15747E+04 </wgt>
   <wgt id='1005'> 0.14078E+04 </wgt>
   <wgt id='1006'> 0.17880E+04 </wgt>
   <wgt id='1007'> 0.15038E+04 </wgt>
   <wgt id='1008'> 0.13443E+04 </wgt>
   <wgt id='1009'> 0.17075E+04 </wgt>
  </rwgt>
  </event>
  <event>
  5      0 0.15478455E+04 0.30000000E+02 0.75467711E-02 0.17577486E+00
        1 -1    0    0  501    0 0.00000000E+00 0.00000000E+00 0.50942855E+03 0.50942865E+03 0.32000000E+00 0.0000E+00 0.9000E+01
       -1 -1    0    0    0  501 0.00000000E+00 0.00000000E+00 -.40328706E+01 0.40455463E+01 0.32000000E+00 0.0000E+00 0.9000E+01
       23  2    1    2    0    0 0.00000000E+00 0.00000000E+00 0.50539568E+03 0.51347420E+03 0.90724628E+02 0.0000E+00 0.0000E+00
      -11  1    3    3    0    0 -.51139213E+01 0.74860574E+01 0.11404772E+01 0.91375016E+01 0.51099893E-03 0.0000E+00 0.9000E+01
       11  1    3    3    0    0 0.51139213E+01 -.74860574E+01 0.50425521E+03 0.50433670E+03 0.51099893E-03 0.0000E+00 0.9000E+01
#aMCatNLO 1  0  0  2  1 0.27266035E+01 0.00000000E+00  9  5  0 0.00000000E+00 0.00000000E+00 0.00000000E+00 0.00000000E+00 0.00000000E+00
  <rwgt>
   <wgt id='1001'> 0.15478E+04 </wgt>
   <wgt id='1002'> 0.14553E+04 </wgt>
   <wgt id='1003'> 0.16774E+04 </wgt>
   <wgt id='1004'> 0.17997E+04 </wgt>
   <wgt id='1005'> 0.16928E+04 </wgt>
   <wgt id='1006'> 0.19491E+04 </wgt>
   <wgt id='1007'> 0.12441E+04 </wgt>
   <wgt id='1008'> 0.11699E+04 </wgt>
   <wgt id='1009'> 0.13480E+04 </wgt>
  </rwgt>
  </event>
  <event>
  5      0 0.15478455E+04 0.15414138E+02 0.75467711E-02 0.14274527E+00
       -1 -1    0    0    0  501 0.00000000E+00 0.00000000E+00 0.72617853E+02 0.72618558E+02 0.32000000E+00 0.0000E+00 0.9000E+01
        1 -1    0    0  501    0 0.00000000E+00 0.00000000E+00 -.28867961E+02 0.28869735E+02 0.32000000E+00 0.0000E+00 0.9000E+01
       23  2    1    2    0    0 0.00000000E+00 0.00000000E+00 0.43749892E+02 0.10148829E+03 0.91574126E+02 0.0000E+00 0.0000E+00
      -11  1    3    3    0    0 -.28185128E+02 -.77856097E+00 -.18106316E+02 0.33508899E+02 0.51099893E-03 0.0000E+00 0.9000E+01
       11  1    3    3    0    0 0.28185128E+02 0.77856097E+00 0.61856208E+02 0.67979394E+02 0.51099893E-03 0.0000E+00 0.9000E+01
#aMCatNLO 1  0  0  1  2 0.16646434E+01 0.00000000E+00  9  5  0 0.00000000E+00 0.00000000E+00 0.00000000E+00 0.00000000E+00 0.00000000E+00
  <rwgt>
   <wgt id='1001'> 0.15479E+04 </wgt>
   <wgt id='1002'> 0.16087E+04 </wgt>
   <wgt id='1003'> 0.14540E+04 </wgt>
   <wgt id='1004'> 0.14321E+04 </wgt>
   <wgt id='1005'> 0.15347E+04 </wgt>
   <wgt id='1006'> 0.12821E+04 </wgt>
   <wgt id='1007'> 0.16959E+04 </wgt>
   <wgt id='1008'> 0.17065E+04 </wgt>
   <wgt id='1009'> 0.16695E+04 </wgt>
  </rwgt>
  </event>
  <event>
  4      0 0.15478455E+04 0.30568169E+02 0.75467711E-02 0.12131357E+00
       -2 -1    0    0    0  501 0.00000000E+00 0.00000000E+00 0.11734298E+03 0.11734342E+03 0.32000000E+00 0.0000E+00 0.9000E+01
        2 -1    0    0  501    0 0.00000000E+00 0.00000000E+00 -.99262912E+01 0.99314479E+01 0.32000000E+00 0.0000E+00 0.9000E+01
      -11  1    1    2    0    0 0.23439845E+02 0.19621075E+02 0.25389847E+02 0.39737354E+02 0.51099893E-03 0.0000E+00 0.9000E+01
       11  1    1    2    0    0 -.23439845E+02 -.19621075E+02 0.82026843E+02 0.87537512E+02 0.51099893E-03 0.0000E+00 0.9000E+01
#aMCatNLO 1  0  0  2  2 0.64528141E+02 0.00000000E+00  9  5  0 0.00000000E+00 0.00000000E+00 0.00000000E+00 0.00000000E+00 0.00000000E+00
  <rwgt>
   <wgt id='1001'> 0.15479E+04 </wgt>
   <wgt id='1002'> 0.15082E+04 </wgt>
   <wgt id='1003'> 0.15993E+04 </wgt>
   <wgt id='1004'> 0.10801E+04 </wgt>
   <wgt id='1005'> 0.11103E+04 </wgt>
   <wgt id='1006'> 0.10410E+04 </wgt>
   <wgt id='1007'> 0.19223E+04 </wgt>
   <wgt id='1008'> 0.18211E+04 </wgt>
   <wgt id='1009'> 0.20538E+04 </wgt>
  </rwgt>
  </event>
  <event>
  6      0 0.15478455E+04 0.30000000E+02 0.75467711E-02 0.14581217E+00
        2 -1    0    0  501    0 0.00000000E+00 0.00000000E+00 0.13905467E+04 0.13905468E+04 0.32000000E+00 0.0000E+00 0.9000E+01
       -2 -1    0    0    0  502 0.00000000E+00 0.00000000E+00 -.12487851E+02 0.12491950E+02 0.32000000E+00 0.0000E+00 0.9000E+01
       23  2    1    2    0    0 0.67033294E+01 -.38124549E+01 0.13876492E+04 0.13907096E+04 0.91887796E+02 0.0000E+00 0.0000E+00
      -11  1    3    3    0    0 0.16533558E+02 -.19508051E+02 0.13281185E+04 0.13283646E+04 0.51099893E-03 0.0000E+00 0.9000E+01
       11  1    3    3    0    0 -.98302287E+01 0.15695596E+02 0.59530762E+02 0.62344982E+02 0.51099893E-03 0.0000E+00 0.9000E+01
       21  1    1    2  501  502 -.67033294E+01 0.38124549E+01 -.95903526E+01 0.12329104E+02 0.75000000E+00 0.0000E+00 0.9000E+01
#aMCatNLO 2  0  0  2  1 0.77116429E+01 0.00000000E+00  9  5  0 0.00000000E+00 0.00000000E+00 0.00000000E+00 0.00000000E+00 0.00000000E+00
  <rwgt>
   <wgt id='1001'> 0.15479E+04 </wgt>
   <wgt id='1002'> 0.13696E+04 </wgt>
   <wgt id='1003'> 0.17813E+04 </wgt>
   <wgt id='1004'> 0.15240E+04 </wgt>
   <wgt id='1005'> 0.13485E+04 </wgt>
   <wgt id='1006'> 0.17539E+04 </wgt>
   <wgt id='1007'> 0.15509E+04 </wgt>
   <wgt id='1008'> 0.13722E+04 </wgt>
   <wgt id='1009'> 0.17847E+04 </wgt>
  </rwgt>
  </event>
  <event>
  5      0 0.15478455E+04 0.15848708E+02 0.75467711E-02 0.13522951E+00
        2 -1    0    0  501    0 0.00000000E+00 0.00000000E+00 0.30145449E+02 0.30147148E+02 0.32000000E+00 0.0000E+00 0.9000E+01
       -2 -1    0    0    0  501 0.00000000E+00 0.00000000E+00 -.61067680E+02 0.61068518E+02 0.32000000E+00 0.0000E+00 0.9000E+01
       23  2    1    2    0    0 0.00000000E+00 0.00000000E+00 -.30922230E+02 0.91215666E+02 0.85814412E+02 0.0000E+00 0.0000E+00
      -11  1    3    3    0    0 0.76842404E+01 -.25076755E+02 0.20634104E+02 0.33371506E+02 0.51099893E-03 0.0000E+00 0.9000E+01
       11  1    3    3    0    0 -.76842404E+01 0.25076755E+02 -.51556335E+02 0.57844160E+02 0.51099893E-03 0.0000E+00 0.9000E+01
#aMCatNLO 1  0  0  1  2 0.23072478E+02 0.00000000E+00  9  5  0 0.00000000E+00 0.00000000E+00 0.00000000E+00 0.00000000E+00 0.00000000E+00
  <rwgt>
   <wgt id='1001'> 0.15479E+04 </wgt>
   <wgt id='1002'> 0.15945E+04 </wgt>
   <wgt id='1003'> 0.14853E+04 </wgt>
   <wgt id='1004'> 0.18525E+04 </wgt>
   <wgt id='1005'> 0.18921E+04 </wgt>
   <wgt id='1006'> 0.17990E+04 </wgt>
   <wgt id='1007'> 0.13318E+04 </wgt>
   <wgt id='1008'> 0.13710E+04 </wgt>
   <wgt id='1009'> 0.12792E+04 </wgt>
  </rwgt>
  </event>
  <event>
  6      0 0.15478455E+04 0.30000000E+02 0.75467711E-02 0.13088745E+00
       21 -1    0    0  502  501 0.00000000E+00 0.00000000E+00 0.82259828E+01 0.82601025E+01 0.75000000E+00 0.0000E+00 0.9000E+01
        1 -1    0    0  501    0 0.00000000E+00 0.00000000E+00 -.63700075E+03 0.63700083E+03 0.32000000E+00 0.0000E+00 0.9000E+01
       23  2    1    2    0    0 0.32015551E+02 -.28299205E+02 -.36591752E+03 0.37895307E+03 0.88791671E+02 0.0000E+00 0.0000E+00
      -11  1    3    3    0    0 0.26941128E+02 -.36574355E+01 -.24465480E+02 0.36575415E+02 0.51099893E-03 0.0000E+00 0.9000E+01
       11  1    3    3    0    0 0.50744222E+01 -.24641769E+02 -.34145204E+03 0.34237766E+03 0.51099893E-03 0.0000E+00 0.9000E+01
        1  1    1    2  502    0 -.32015551E+02 0.28299205E+02 -.26285725E+03 0.26630786E+03 0.32000000E+00 0.0000E+00 0.9000E+01
#aMCatNLO 2  0  0  1  2 0.42729855E+02 0.00000000E+00  9  5  0 0.00000000E+00 0.00000000E+00 0.00000000E+00 0.00000000E+00 0.00000000E+00
  <rwgt>
   <wgt id='1001'> 0.15479E+04 </wgt>
   <wgt id='1002'> 0.13867E+04 </wgt>
   <wgt id='1003'> 0.17527E+04 </wgt>
   <wgt id='1004'> 0.16221E+04 </wgt>
   <wgt id='1005'> 0.14533E+04 </wgt>
   <wgt id='1006'> 0.18369E+04 </wgt>
   <wgt id='1007'> 0.14391E+04 </wgt>
   <wgt id='1008'> 0.12893E+04 </wgt>
   <wgt id='1009'> 0.16296E+04 </wgt>
  </rwgt>
  </event>
  <event>
  5      0 0.15478455E+04 0.30000000E+02 0.75467711E-02 0.13400747E+00
        3 -1    0    0  501    0 0.00000000E+00 0.00000000E+00 0.86169317E+01 0.86314259E+01 0.50000000E+00 0.0000E+00 0.9000E+01
       -3 -1    0    0    0  501 0.00000000E+00 0.00000000E+00 -.24450388E+03 0.24450439E+03 0.50000000E+00 0.0000E+00 0.9000E+01
       23  2    1    2    0    0 0.00000000E+00 0.00000000E+00 -.23588695E+03 0.25313582E+03 0.91842743E+02 0.0000E+00 0.0000E+00
      -11  1    3    3    0    0 -.17434661E+02 0.14304171E+02 -.22819771E+03 0.22930934E+03 0.51099893E-03 0.0000E+00 0.9000E+01
       11  1    3    3    0    0 0.17434661E+02 -.14304171E+02 -.76892347E+01 0.23826478E+02 0.51099893E-03 0.0000E+00 0.9000E+01
#aMCatNLO 1  0  0  2  2 0.33586005E+02 0.00000000E+00  9  5  0 0.00000000E+00 0.00000000E+00 0.00000000E+00 0.00000000E+00 0.00000000E+00
  <rwgt>
   <wgt id='1001'> 0.15478E+04 </wgt>
   <wgt id='1002'> 0.15430E+04 </wgt>
   <wgt id='1003'> 0.15541E+04 </wgt>
   <wgt id='1004'> 0.17674E+04 </wgt>
   <wgt id='1005'> 0.17639E+04 </wgt>
   <wgt id='1006'> 0.17719E+04 </wgt>
   <wgt id='1007'> 0.12865E+04 </wgt>
   <wgt id='1008'> 0.12811E+04 </wgt>
   <wgt id='1009'> 0.12936E+04 </wgt>
  </rwgt>
  </event>
  <event>
  5      0 0.15478455E+04 0.30000000E+02 0.75467711E-02 0.11064365E+00
       -1 -1    0    0    0  501 0.00000000E+00 0.00000000E+00 0.45894189E+01 0.46005615E+01 0.32000000E+00 0.0000E+00 0.9000E+01
        1 -1    0    0  501    0 0.00000000E+00 0.00000000E+00 -.44293689E+03 0.44293700E+03 0.32000000E+00 0.0000E+00 0.9000E+01
       23  2    1    2    0    0 0.00000000E+00 0.00000000E+00 -.43834747E+03 0.44753756E+03 0.90229532E+02 0.0000E+00 0.0000E+00
      -11  1    3    3    0    0 -.70840239E+01 -.17357848E+02 -.15640996E+02 0.24415549E+02 0.51099893E-03 0.0000E+00 0.9000E+01
       11  1    3    3    0    0 0.70840239E+01 0.17357848E+02 -.42270647E+03 0.42312201E+03 0.51099893E-03 0.0000E+00 0.9000E+01
#aMCatNLO 1  0  0  1  2 0.14088345E+03 0.00000000E+00  9  5  0 0.00000000E+00 0.00000000E+00 0.00000000E+00 0.00000000E+00 0.00000000E+00
  <rwgt>
   <wgt id='1001'> 0.15479E+04 </wgt>
   <wgt id='1002'> 0.14494E+04 </wgt>
   <wgt id='1003'> 0.16794E+04 </wgt>
   <wgt id='1004'> 0.13794E+04 </wgt>
   <wgt id='1005'> 0.13130E+04 </wgt>
   <wgt id='1006'> 0.14682E+04 </wgt>
   <wgt id='1007'> 0.16747E+04 </wgt>
   <wgt id='1008'> 0.15475E+04 </wgt>
   <wgt id='1009'> 0.18445E+04 </wgt>
  </rwgt>
  </event>
  <event>
  5      0 0.15478455E+04 0.34557394E+02 0.75467711E-02 0.12156415E+00
       -1 -1    0    0    0  501 0.00000000E+00 0.00000000E+00 0.24114365E+02 0.24116488E+02 0.32000000E+00 0.0000E+00 0.9000E+01
        1 -1    0    0  501    0 0.00000000E+00 0.00000000E+00 -.88036430E+02 0.88037012E+02 0.32000000E+00 0.0000E+00 0.9000E+01
       23  2    1    2    0    0 0.00000000E+00 0.00000000E+00 -.63922065E+02 0.11215350E+03 0.92154095E+02 0.0000E+00 0.0000E+00
      -11  1    3    3    0    0 -.25579776E+02 0.23235502E+02 0.51307914E+01 0.34936206E+02 0.51099893E-03 0.0000E+00 0.9000E+01
       11  1    3    3    0    0 0.25579776E+02 -.23235502E+02 -.69052857E+02 0.77217294E+02 0.51099893E-03 0.0000E+00 0.9000E+01
#aMCatNLO 1  0  0  1  2 0.59213738E+02 0.00000000E+00  9  5  0 0.00000000E+00 0.00000000E+00 0.00000000E+00 0.00000000E+00 0.00000000E+00
  <rwgt>
   <wgt id='1001'> 0.15479E+04 </wgt>
   <wgt id='1002'> 0.15037E+04 </wgt>
   <wgt id='1003'> 0.16049E+04 </wgt>
   <wgt id='1004'> 0.12477E+04 </wgt>
   <wgt id='1005'> 0.12506E+04 </wgt>
   <wgt id='1006'> 0.12439E+04 </wgt>
   <wgt id='1007'> 0.17731E+04 </wgt>
   <wgt id='1008'> 0.16878E+04 </wgt>
   <wgt id='1009'> 0.18830E+04 </wgt>
  </rwgt>
  </event>
  <event>
  5      0 0.15478455E+04 0.14996150E+02 0.75467711E-02 0.14019827E+00
       -1 -1    0    0    0  501 0.00000000E+00 0.00000000E+00 0.62952126E+01 0.63033405E+01 0.32000000E+00 0.0000E+00 0.9000E+01
        1 -1    0    0  501    0 0.00000000E+00 0.00000000E+00 -.33846587E+03 0.33846602E+03 0.32000000E+00 0.0000E+00 0.9000E+01
       23  2    1    2    0    0 0.00000000E+00 0.00000000E+00 -.33217065E+03 0.34476936E+03 0.92350241E+02 0.0000E+00 0.0000E+00
      -11  1    3    3    0    0 -.21076736E+02 0.18116342E+00 -.12707907E+02 0.24612041E+02 0.51099893E-03 0.0000E+00 0.9000E+01
       11  1    3    3    0    0 0.21076736E+02 -.18116342E+00 -.31946275E+03 0.32015732E+03 0.51099893E-03 0.0000E+00 0.9000E+01
#aMCatNLO 1  0  0  1  2 0.19979891E+02 0.00000000E+00  9  5  0 0.00000000E+00 0.00000000E+00 0.00000000E+00 0.00000000E+00 0.00000000E+00
  <rwgt>
   <wgt id='1001'> 0.15479E+04 </wgt>
   <wgt id='1002'> 0.15698E+04 </wgt>
   <wgt id='1003'> 0.15144E+04 </wgt>
   <wgt id='1004'> 0.14812E+04 </wgt>
   <wgt id='1005'> 0.15362E+04 </wgt>
   <wgt id='1006'> 0.14033E+04 </wgt>
   <wgt id='1007'> 0.15676E+04 </wgt>
   <wgt id='1008'> 0.15579E+04 </wgt>
   <wgt id='1009'> 0.15765E+04 </wgt>
  </rwgt>
  </event>
  <event>
  5      0 0.15478455E+04 0.30000000E+02 0.75467711E-02 0.13480047E+00
       -3 -1    0    0    0  501 0.00000000E+00 0.00000000E+00 0.12253036E+03 0.12253138E+03 0.50000000E+00 0.0000E+00 0.9000E+01
        3 -1    0    0  501    0 0.00000000E+00 0.00000000E+00 -.16859273E+02 0.16866686E+02 0.50000000E+00 0.0000E+00 0.9000E+01
       23  2    1    2    0    0 0.00000000E+00 0.00000000E+00 0.10567108E+03 0.13939806E+03 0.90914477E+02 0.0000E+00 0.0000E+00
      -11  1    3    3    0    0 -.18262286E+02 0.17952235E+02 0.11042202E+03 0.11335262E+03 0.51099893E-03 0.0000E+00 0.9000E+01
       11  1    3    3    0    0 0.18262286E+02 -.17952235E+02 -.47509348E+01 0.26045445E+02 0.51099893E-03 0.0000E+00 0.9000E+01
#aMCatNLO 1  0  0  1  2 0.23613838E+02 0.00000000E+00  9  5  0 0.00000000E+00 0.00000000E+00 0.00000000E+00 0.00000000E+00 0.00000000E+00
  <rwgt>
   <wgt id='1001'> 0.15479E+04 </wgt>
   <wgt id='1002'> 0.15449E+04 </wgt>
   <wgt id='1003'> 0.15518E+04 </wgt>
   <wgt id='1004'> 0.17752E+04 </wgt>
   <wgt id='1005'> 0.17736E+04 </wgt>
   <wgt id='1006'> 0.17771E+04 </wgt>
   <wgt id='1007'> 0.12814E+04 </wgt>
   <wgt id='1008'> 0.12775E+04 </wgt>
   <wgt id='1009'> 0.12865E+04 </wgt>
  </rwgt>
  </event>
  <event>
  5      0 0.15478455E+04 0.18773674E+02 0.75467711E-02 0.12696068E+00
       -2 -1    0    0    0  501 0.00000000E+00 0.00000000E+00 0.34603035E+01 0.34750684E+01 0.32000000E+00 0.0000E+00 0.9000E+01
        2 -1    0    0  501    0 0.00000000E+00 0.00000000E+00 -.55074405E+03 0.55074414E+03 0.32000000E+00 0.0000E+00 0.9000E+01
       23  2    1    2    0    0 0.00000000E+00 0.00000000E+00 -.54728375E+03 0.55421921E+03 0.87403862E+02 0.0000E+00 0.0000E+00
      -11  1    3    3    0    0 -.29013162E+02 -.32094335E+02 -.23452882E+03 0.23848601E+03 0.51099893E-03 0.0000E+00 0.9000E+01
       11  1    3    3    0    0 0.29013162E+02 0.32094335E+02 -.31275492E+03 0.31573320E+03 0.51099893E-03 0.0000E+00 0.9000E+01
#aMCatNLO 1  0  0  1  2 0.24395886E+02 0.00000000E+00  9  5  0 0.00000000E+00 0.00000000E+00 0.00000000E+00 0.00000000E+00 0.00000000E+00
  <rwgt>
   <wgt id='1001'> 0.15479E+04 </wgt>
   <wgt id='1002'> 0.15297E+04 </wgt>
   <wgt id='1003'> 0.15698E+04 </wgt>
   <wgt id='1004'> 0.15606E+04 </wgt>
   <wgt id='1005'> 0.15557E+04 </wgt>
   <wgt id='1006'> 0.15655E+04 </wgt>
   <wgt id='1007'> 0.15138E+04 </wgt>
   <wgt id='1008'> 0.14824E+04 </wgt>
   <wgt id='1009'> 0.15525E+04 </wgt>
  </rwgt>
  </event>
  <event>
  5      0 0.15478455E+04 0.30000000E+02 0.75467711E-02 0.13809240E+00
        2 -1    0    0  501    0 0.00000000E+00 0.00000000E+00 0.10650650E+03 0.10650698E+03 0.32000000E+00 0.0000E+00 0.9000E+01
       -2 -1    0    0    0  501 0.00000000E+00 0.00000000E+00 -.20049865E+02 0.20052419E+02 0.32000000E+00 0.0000E+00 0.9000E+01
       23  2    1    2    0    0 0.00000000E+00 0.00000000E+00 0.86456636E+02 0.12655940E+03 0.92425819E+02 0.0000E+00 0.0000E+00
      -11  1    3    3    0    0 0.23813406E+01 0.20998475E+02 -.13047174E+02 0.24836173E+02 0.51099893E-03 0.0000E+00 0.9000E+01
       11  1    3    3    0    0 -.23813406E+01 -.20998475E+02 0.99503810E+02 0.10172323E+03 0.51099893E-03 0.0000E+00 0.9000E+01
#aMCatNLO 1  0  0  2  1 0.25843304E+02 0.00000000E+00  9  5  0 0.00000000E+00 0.00000000E+00 0.00000000E+00 0.00000000E+00 0.00000000E+00
  <rwgt>
   <wgt id='1001'> 0.15479E+04 </wgt>
   <wgt id='1002'> 0.15466E+04 </wgt>
   <wgt id='1003'> 0.15496E+04 </wgt>
   <wgt id='1004'> 0.16964E+04 </wgt>
   <wgt id='1005'> 0.17018E+04 </wgt>
   <wgt id='1006'> 0.16893E+04 </wgt>
   <wgt id='1007'> 0.14116E+04 </wgt>
   <wgt id='1008'> 0.13987E+04 </wgt>
   <wgt id='1009'> 0.14287E+04 </wgt>
  </rwgt>
  </event>
  <event>
  5      0 0.15478455E+04 0.26724211E+02 0.75467711E-02 0.13591445E+00
        2 -1    0    0  501    0 0.00000000E+00 0.00000000E+00 0.13536979E+02 0.13540761E+02 0.32000000E+00 0.0000E+00 0.9000E+01
       -2 -1    0    0    0  501 0.00000000E+00 0.00000000E+00 -.15466020E+03 0.15466053E+03 0.32000000E+00 0.0000E+00 0.9000E+01
       23  2    1    2    0    0 0.00000000E+00 0.00000000E+00 -.14112322E+03 0.16820129E+03 0.91520004E+02 0.0000E+00 0.0000E+00
      -11  1    3    3    0    0 0.30314734E+02 0.22552924E+02 -.11800414E+03 0.12390559E+03 0.51099893E-03 0.0000E+00 0.9000E+01
       11  1    3    3    0    0 -.30314734E+02 -.22552924E+02 -.23119081E+02 0.44295704E+02 0.51099893E-03 0.0000E+00 0.9000E+01
#aMCatNLO 1  0  0  2  1 0.74415882E+00 0.00000000E+00  9  5  0 0.00000000E+00 0.00000000E+00 0.00000000E+00 0.00000000E+00 0.00000000E+00
  <rwgt>
   <wgt id='1001'> 0.15479E+04 </wgt>
   <wgt id='1002'> 0.15314E+04 </wgt>
   <wgt id='1003'> 0.15682E+04 </wgt>
   <wgt id='1004'> 0.16512E+04 </wgt>
   <wgt id='1005'> 0.16382E+04 </wgt>
   <wgt id='1006'> 0.16672E+04 </wgt>
   <wgt id='1007'> 0.14146E+04 </wgt>
   <wgt id='1008'> 0.13953E+04 </wgt>
   <wgt id='1009'> 0.14387E+04 </wgt>
  </rwgt>
  </event>
  <event>
  5      0 0.15478455E+04 0.30000000E+02 0.75467711E-02 0.13284419E+00
        1 -1    0    0  501    0 0.00000000E+00 0.00000000E+00 0.38371722E+03 0.38371736E+03 0.32000000E+00 0.0000E+00 0.9000E+01
       -1 -1    0    0    0  501 0.00000000E+00 0.00000000E+00 -.52550904E+01 0.52648243E+01 0.32000000E+00 0.0000E+00 0.9000E+01
       23  2    1    2    0    0 0.00000000E+00 0.00000000E+00 0.37846213E+03 0.38898218E+03 0.89852941E+02 0.0000E+00 0.0000E+00
      -11  1    3    3    0    0 -.40038709E+01 0.39595410E+01 0.38218838E+03 0.38222986E+03 0.51099893E-03 0.0000E+00 0.9000E+01
       11  1    3    3    0    0 0.40038709E+01 -.39595410E+01 -.37262451E+01 0.67523218E+01 0.51099893E-03 0.0000E+00 0.9000E+01
#aMCatNLO 1  0  0  2  2 0.43454187E+02 0.00000000E+00  9  5  0 0.00000000E+00 0.00000000E+00 0.00000000E+00 0.00000000E+00 0.00000000E+00
  <rwgt>
   <wgt id='1001'> 0.15478E+04 </wgt>
   <wgt id='1002'> 0.13678E+04 </wgt>
   <wgt id='1003'> 0.18402E+04 </wgt>
   <wgt id='1004'> 0.14671E+04 </wgt>
   <wgt id='1005'> 0.13143E+04 </wgt>
   <wgt id='1006'> 0.17154E+04 </wgt>
   <wgt id='1007'> 0.13823E+04 </wgt>
   <wgt id='1008'> 0.12123E+04 </wgt>
   <wgt id='1009'> 0.16583E+04 </wgt>
  </rwgt>
  </event>
  <event>
  5      0 0.15478455E+04 0.30000000E+02 0.75467711E-02 0.14253887E+00
       -3 -1    0    0    0  501 0.00000000E+00 0.00000000E+00 0.30626911E+03 0.30626952E+03 0.50000000E+00 0.0000E+00 0.9000E+01
        3 -1    0    0  501    0 0.00000000E+00 0.00000000E+00 -.69233103E+01 0.69413418E+01 0.50000000E+00 0.0000E+00 0.9000E+01
       23  2    1    2    0    0 0.00000000E+00 0.00000000E+00 0.29934580E+03 0.31321086E+03 0.92158206E+02 0.0000E+00 0.0000E+00
      -11  1    3    3    0    0 -.20882515E+02 -.19392433E+02 0.27273575E+03 0.27422060E+03 0.51099893E-03 0.0000E+00 0.9000E+01
       11  1    3    3    0    0 0.20882515E+02 0.19392433E+02 0.26610047E+02 0.38990262E+02 0.51099893E-03 0.0000E+00 0.9000E+01
#aMCatNLO 1  0  0  2  1 0.15162623E+01 0.00000000E+00  9  5  0 0.00000000E+00 0.00000000E+00 0.00000000E+00 0.00000000E+00 0.00000000E+00
  <rwgt>
   <wgt id='1001'> 0.15479E+04 </wgt>
   <wgt id='1002'> 0.14947E+04 </wgt>
   <wgt id='1003'> 0.16169E+04 </wgt>
   <wgt id='1004'> 0.17282E+04 </wgt>
   <wgt id='1005'> 0.16708E+04 </wgt>
   <wgt id='1006'> 0.18028E+04 </wgt>
   <wgt id='1007'> 0.13256E+04 </wgt>
   <wgt id='1008'> 0.12787E+04 </wgt>
   <wgt id='1009'> 0.13864E+04 </wgt>
  </rwgt>
  </event>
  <event>
  5      0 0.15478455E+04 0.24038440E+02 0.75467711E-02 0.14176989E+00
       -1 -1    0    0    0  501 0.00000000E+00 0.00000000E+00 0.26169213E+02 0.26171170E+02 0.32000000E+00 0.0000E+00 0.9000E+01
        1 -1    0    0  501    0 0.00000000E+00 0.00000000E+00 -.87293538E+02 0.87294124E+02 0.32000000E+00 0.0000E+00 0.9000E+01
       23  2    1    2    0    0 0.00000000E+00 0.00000000E+00 -.61124325E+02 0.11346529E+03 0.95593880E+02 0.0000E+00 0.0000E+00
      -11  1    3    3    0    0 -.18732257E+02 -.11425389E+02 0.19839415E+02 0.29581064E+02 0.51099893E-03 0.0000E+00 0.9000E+01
       11  1    3    3    0    0 0.18732257E+02 0.11425389E+02 -.80963740E+02 0.83884230E+02 0.51099893E-03 0.0000E+00 0.9000E+01
#aMCatNLO 1  0  0  1  2 0.14797846E+02 0.00000000E+00  9  5  0 0.00000000E+00 0.00000000E+00 0.00000000E+00 0.00000000E+00 0.00000000E+00
  <rwgt>
   <wgt id='1001'> 0.15479E+04 </wgt>
   <wgt id='1002'> 0.15094E+04 </wgt>
   <wgt id='1003'> 0.15935E+04 </wgt>
   <wgt id='1004'> 0.16229E+04 </wgt>
   <wgt id='1005'> 0.15943E+04 </wgt>
   <wgt id='1006'> 0.16552E+04 </wgt>
   <wgt id='1007'> 0.14680E+04 </wgt>
   <wgt id='1008'> 0.14173E+04 </wgt>
   <wgt id='1009'> 0.15306E+04 </wgt>
  </rwgt>
  </event>
  <event>
  5      0 0.15478455E+04 0.32423037E+02 0.75467711E-02 0.12943132E+00
        2 -1    0    0  501    0 0.00000000E+00 0.00000000E+00 0.13832027E+03 0.13832064E+03 0.32000000E+00 0.0000E+00 0.9000E+01
       -2 -1    0    0    0  501 0.00000000E+00 0.00000000E+00 -.16239936E+02 0.16243088E+02 0.32000000E+00 0.0000E+00 0.9000E+01
       23  2    1    2    0    0 0.00000000E+00 0.00000000E+00 0.12208033E+03 0.15456373E+03 0.94796298E+02 0.0000E+00 0.0000E+00
      -11  1    3    3    0    0 -.18865651E+02 -.26369311E+02 0.46685701E+01 0.32757425E+02 0.51099893E-03 0.0000E+00 0.9000E+01
       11  1    3    3    0    0 0.18865651E+02 0.26369311E+02 0.11741176E+03 0.12180630E+03 0.51099893E-03 0.0000E+00 0.9000E+01
#aMCatNLO 1  0  0  2  1 0.31147894E+02 0.00000000E+00  9  5  0 0.00000000E+00 0.00000000E+00 0.00000000E+00 0.00000000E+00 0.00000000E+00
  <rwgt>
   <wgt id='1001'> 0.15479E+04 </wgt>
   <wgt id='1002'> 0.15338E+04 </wgt>
   <wgt id='1003'> 0.15660E+04 </wgt>
   <wgt id='1004'> 0.16978E+04 </wgt>
   <wgt id='1005'> 0.16846E+04 </wgt>
   <wgt id='1006'> 0.17150E+04 </wgt>
   <wgt id='1007'> 0.14143E+04 </wgt>
   <wgt id='1008'> 0.13949E+04 </wgt>
   <wgt id='1009'> 0.14393E+04 </wgt>
  </rwgt>
  </event>
  <event>
  5      0 0.15478455E+04 0.44526344E+02 0.75467711E-02 0.12121925E+00
        2 -1    0    0  501    0 0.00000000E+00 0.00000000E+00 0.68712446E+03 0.68712454E+03 0.32000000E+00 0.0000E+00 0.9000E+01
       -2 -1    0    0    0  501 0.00000000E+00 0.00000000E+00 -.30583441E+01 0.30750396E+01 0.32000000E+00 0.0000E+00 0.9000E+01
       23  2    1    2    0    0 0.00000000E+00 0.00000000E+00 0.68406612E+03 0.69019958E+03 0.91809592E+02 0.0000E+00 0.0000E+00
      -11  1    3    3    0    0 0.18740965E+02 -.40390241E+02 0.42596774E+03 0.42828858E+03 0.51099893E-03 0.0000E+00 0.9000E+01
       11  1    3    3    0    0 -.18740965E+02 0.40390241E+02 0.25809838E+03 0.26191099E+03 0.51099893E-03 0.0000E+00 0.9000E+01
#aMCatNLO 1  0  0  2  1 0.50559388E+02 0.00000000E+00  9  5  0 0.00000000E+00 0.00000000E+00 0.00000000E+00 0.00000000E+00 0.00000000E+00
  <rwgt>
   <wgt id='1001'> 0.15479E+04 </wgt>
   <wgt id='1002'> 0.15472E+04 </wgt>
   <wgt id='1003'> 0.15487E+04 </wgt>
   <wgt id='1004'> 0.16771E+04 </wgt>
   <wgt id='1005'> 0.16780E+04 </wgt>
   <wgt id='1006'> 0.16760E+04 </wgt>
   <wgt id='1007'> 0.13931E+04 </wgt>
   <wgt id='1008'> 0.13912E+04 </wgt>
   <wgt id='1009'> 0.13954E+04 </wgt>
  </rwgt>
  </event>
  <event>
  5      0 0.15478455E+04 0.20166500E+02 0.75467711E-02 0.13280262E+00
        2 -1    0    0  501    0 0.00000000E+00 0.00000000E+00 0.54394814E+03 0.54394824E+03 0.32000000E+00 0.0000E+00 0.9000E+01
       -2 -1    0    0    0  501 0.00000000E+00 0.00000000E+00 -.31089202E+01 0.31253455E+01 0.32000000E+00 0.0000E+00 0.9000E+01
       23  2    1    2    0    0 0.00000000E+00 0.00000000E+00 0.54083922E+03 0.54707358E+03 0.82355570E+02 0.0000E+00 0.0000E+00
      -11  1    3    3    0    0 0.37707781E+02 0.12061228E+02 0.34565089E+03 0.34791074E+03 0.51099893E-03 0.0000E+00 0.9000E+01
       11  1    3    3    0    0 -.37707781E+02 -.12061228E+02 0.19518833E+03 0.19916284E+03 0.51099893E-03 0.0000E+00 0.9000E+01
#aMCatNLO 1  0  0  2  1 0.77312125E+01 0.00000000E+00  9  5  0 0.00000000E+00 0.00000000E+00 0.00000000E+00 0.00000000E+00 0.00000000E+00
  <rwgt>
   <wgt id='1001'> 0.15479E+04 </wgt>
   <wgt id='1002'> 0.15189E+04 </wgt>
   <wgt id='1003'> 0.15776E+04 </wgt>
   <wgt id='1004'> 0.15403E+04 </wgt>
   <wgt id='1005'> 0.15264E+04 </wgt>
   <wgt id='1006'> 0.15500E+04 </wgt>
   <wgt id='1007'> 0.15353E+04 </wgt>
   <wgt id='1008'> 0.14912E+04 </wgt>
   <wgt id='1009'> 0.15852E+04 </wgt>
  </rwgt>
  </event>
  <event>
  5      0 0.15478455E+04 0.30000000E+02 0.75467711E-02 0.12003609E+00
       -1 -1    0    0    0  501 0.00000000E+00 0.00000000E+00 0.31209065E+01 0.31372691E+01 0.32000000E+00 0.0000E+00 0.9000E+01
        1 -1    0    0  501    0 0.00000000E+00 0.00000000E+00 -.66210625E+03 0.66210633E+03 0.32000000E+00 0.0000E+00 0.9000E+01
       23  2    1    2    0    0 0.00000000E+00 0.00000000E+00 -.65898534E+03 0.66524359E+03 0.91034936E+02 0.0000E+00 0.0000E+00
      -11  1    3    3    0    0 -.32558783E+01 -.15921572E+01 -.66105836E+03 0.66106830E+03 0.51099893E-03 0.0000E+00 0.9000E+01
       11  1    3    3    0    0 0.32558783E+01 0.15921572E+01 0.20730192E+01 0.41752984E+01 0.51099893E-03 0.0000E+00 0.9000E+01
#aMCatNLO 1  0  0  1  2 0.81489470E+02 0.00000000E+00  9  5  0 0.00000000E+00 0.00000000E+00 0.00000000E+00 0.00000000E+00 0.00000000E+00
  <rwgt>
   <wgt id='1001'> 0.15479E+04 </wgt>
   <wgt id='1002'> 0.13924E+04 </wgt>
   <wgt id='1003'> 0.18241E+04 </wgt>
   <wgt id='1004'> 0.19315E+04 </wgt>
   <wgt id='1005'> 0.17387E+04 </wgt>
   <wgt id='1006'> 0.22743E+04 </wgt>
   <wgt id='1007'> 0.11297E+04 </wgt>
   <wgt id='1008'> 0.10157E+04 </wgt>
   <wgt id='1009'> 0.13326E+04 </wgt>
  </rwgt>
  </event>
  <event>
  5      0 0.15478455E+04 0.30000000E+02 0.75467711E-02 0.14705497E+00
       -2 -1    0    0    0  501 0.00000000E+00 0.00000000E+00 0.54606079E+01 0.54699761E+01 0.32000000E+00 0.0000E+00 0.9000E+01
        2 -1    0    0  501    0 0.00000000E+00 0.00000000E+00 -.37552161E+03 0.37552175E+03 0.32000000E+00 0.0000E+00 0.9000E+01
       23  2    1    2    0    0 0.00000000E+00 0.00000000E+00 -.37006100E+03 0.38099173E+03 0.90606553E+02 0.0000E+00 0.0000E+00
      -11  1    3    3    0    0 -.11528265E+02 -.21918527E+02 -.34454348E+03 0.34543238E+03 0.51099893E-03 0.0000E+00 0.9000E+01
       11  1    3    3    0    0 0.11528265E+02 0.21918527E+02 -.25517529E+02 0.35559344E+02 0.51099893E-03 0.0000E+00 0.9000E+01
#aMCatNLO 1  0  0  1  2 0.24395886E+02 0.00000000E+00  9  5  0 0.00000000E+00 0.00000000E+00 0.00000000E+00 0.00000000E+00 0.00000000E+00
  <rwgt>
   <wgt id='1001'> 0.15479E+04 </wgt>
   <wgt id='1002'> 0.13683E+04 </wgt>
   <wgt id='1003'> 0.17837E+04 </wgt>
   <wgt id='1004'> 0.17416E+04 </wgt>
   <wgt id='1005'> 0.15396E+04 </wgt>
   <wgt id='1006'> 0.20071E+04 </wgt>
   <wgt id='1007'> 0.13283E+04 </wgt>
   <wgt id='1008'> 0.11742E+04 </wgt>
   <wgt id='1009'> 0.15308E+04 </wgt>
  </rwgt>
  </event>
  <event>
  5      0 0.15478455E+04 0.25841007E+02 0.75467711E-02 0.12303917E+00
       -3 -1    0    0    0  501 0.00000000E+00 0.00000000E+00 0.67954646E+03 0.67954664E+03 0.50000000E+00 0.0000E+00 0.9000E+01
        3 -1    0    0  501    0 0.00000000E+00 0.00000000E+00 -.28336114E+01 0.28773866E+01 0.50000000E+00 0.0000E+00 0.9000E+01
       23  2    1    2    0    0 0.00000000E+00 0.00000000E+00 0.67671285E+03 0.68242403E+03 0.88103791E+02 0.0000E+00 0.0000E+00
      -11  1    3    3    0    0 0.24957850E+02 -.36057553E+02 0.30592794E+03 0.30905492E+03 0.51099893E-03 0.0000E+00 0.9000E+01
       11  1    3    3    0    0 -.24957850E+02 0.36057553E+02 0.37078491E+03 0.37336911E+03 0.51099893E-03 0.0000E+00 0.9000E+01
#aMCatNLO 1  0  0  2  1 0.41909263E+02 0.00000000E+00  9  5  0 0.00000000E+00 0.00000000E+00 0.00000000E+00 0.00000000E+00 0.00000000E+00
  <rwgt>
   <wgt id='1001'> 0.15479E+04 </wgt>
   <wgt id='1002'> 0.16422E+04 </wgt>
   <wgt id='1003'> 0.14274E+04 </wgt>
   <wgt id='1004'> -.60315E+02 </wgt>
   <wgt id='1005'> 0.22694E+03 </wgt>
   <wgt id='1006'> -.42685E+03 </wgt>
   <wgt id='1007'> 0.29365E+04 </wgt>
   <wgt id='1008'> 0.28563E+04 </wgt>
   <wgt id='1009'> 0.30386E+04 </wgt>
  </rwgt>
  </event>
  <event>
  5      0 0.15478455E+04 0.23734818E+02 0.75467711E-02 0.12957195E+00
       -2 -1    0    0    0  501 0.00000000E+00 0.00000000E+00 0.27117521E+02 0.27119409E+02 0.32000000E+00 0.0000E+00 0.9000E+01
        2 -1    0    0  501    0 0.00000000E+00 0.00000000E+00 -.90939970E+02 0.90940533E+02 0.32000000E+00 0.0000E+00 0.9000E+01
       23  2    1    2    0    0 0.00000000E+00 0.00000000E+00 -.63822449E+02 0.11805994E+03 0.99321925E+02 0.0000E+00 0.0000E+00
      -11  1    3    3    0    0 0.17613106E+02 0.43087399E+02 -.52481067E+02 0.70149896E+02 0.51099893E-03 0.0000E+00 0.9000E+01
       11  1    3    3    0    0 -.17613106E+02 -.43087399E+02 -.11341382E+02 0.47910045E+02 0.51099893E-03 0.0000E+00 0.9000E+01
#aMCatNLO 1  0  0  2  1 0.76171463E+01 0.00000000E+00  9  5  0 0.00000000E+00 0.00000000E+00 0.00000000E+00 0.00000000E+00 0.00000000E+00
  <rwgt>
   <wgt id='1001'> 0.15479E+04 </wgt>
   <wgt id='1002'> 0.15176E+04 </wgt>
   <wgt id='1003'> 0.15817E+04 </wgt>
   <wgt id='1004'> 0.18799E+04 </wgt>
   <wgt id='1005'> 0.18269E+04 </wgt>
   <wgt id='1006'> 0.19424E+04 </wgt>
   <wgt id='1007'> 0.12777E+04 </wgt>
   <wgt id='1008'> 0.12617E+04 </wgt>
   <wgt id='1009'> 0.12939E+04 </wgt>
  </rwgt>
  </event>
  
