<LesHouchesEvents version="3.0">
<!--
file generated with POWHEG-BOX-V2
Input file powheg.input contained:
#numevts 25000    ! number of events to be generated
#numevts 25     ! number of events to be generated
numevts 1000000     ! number of events to be generated
vdecaymode 1      !(1:electron decay, 2:muonic decay, 3: tauonic decay,...)
ih1   1           ! hadron 1 (1 for protons, -1 for antiprotons)
ih2   1           ! hadron 2 (1 for protons, -1 for antiprotons)
#ndns1 131         ! pdf set for hadron 1 (mlm numbering)
#ndns2 131         ! pdf set for hadron 2 (mlm numbering)
# To be set only if using LHA pdfs
#! 19150 cteq4m
#! 19170 cteq4l
#! 10050 cteq6m
#! 10042 cteq6l1
#! 10800 ct10
#! 60730 herapdf1.5 NLO
#! 61100 herapdf2.0 NLO
#!lhans1  10042         ! pdf set for hadron 1 (LHA numbering)
#!lhans2  10042         ! pdf set for hadron 2 (LHA numbering)
#lhans1  10800         ! pdf set for hadron 1 (LHA numbering)
#lhans2  10800         ! pdf set for hadron 2 (LHA numbering)
lhans1 61100
lhans2 61100
#! lhans1 11000
#! lhans2 11000
#ebeam1 4000d0     ! energy of beam 1
#ebeam2 4000d0     ! energy of beam 2
ebeam1 4000d0    ! energy of beam 1
ebeam2 4000d0    ! energy of beam 2
#bornsuppfact 30d0 ! (default 0d0) mass param for Born suppression factor. If < 0 suppfact = 1

use-old-grid    1 ! if 1 use old grid if file pwggrids.dat is present (<> 1 regenerate)
use-old-ubound  1 ! if 1 use norm of upper bounding function stored in pwgubound.dat, if present; <>
facscfact 1
renscfact 1

ncall1  40000 ! number of calls for initializing the integration grid
itmx1    1    ! number of iterations for initializing the integration grid
ncall2  40000  ! number of calls for computing the integral and finding upper bound
itmx2    1     ! number of iterations for computing the integral and finding upper bound
foldcsi   1    ! number of folds on csi integration
foldy     1    ! number of folds on  y  integration
foldphi   1    ! number of folds on phi integration
nubound 50000  ! number of bbarra calls to setup norm of upper bounding function
icsimax  1     ! <= 100, number of csi subdivision when computing the upper bounds
iymax    1     ! <= 100, number of y subdivision when computing the upper bounds
xupbound 2d0   ! increase upper bound for radiation generation

#bornonly   0      ! (default 0) if 1 do Born only

#iseed    7
#bwcutofflow  25
#bwcutoffhigh 35
mass_low 20         ! lower limit for dilepton mass
mass_high 200      ! upper limit for dilepton mass
testplots 1
withdamp 1
withnegweights 1
#ptborncut 20

#maxseeds 10000
#manyseeds 1
pdfreweight 1
storeinfo_rwgt 1
#compute_rwgt 1
fastbtlbound 1
storemintupb 1

#xgriditeration 1
#parallelstage 1

# runningscale 0    ! default is 1, true, central scale equal to Z/gamma virtuality, 0 equal to M_Z

ptsqmin    100.0      ! (default 0.8 GeV) minimum pt for generation of radiation


# Option for alternative splitting R-> R_s + R_f
# These were study to see the effect on the unphysical negative value of the a0
# angular correlation coefficients
# bornzerodamp 1    ! Turn this on (without this the program behaves as usual)
# new_damp 1        ! R_s = max(0,min(1, R_app/R)), where R_app is the soft collinear approximation
# hnew_damp 0.5     ! if this flag appears together with new_damp 1, then R_app -> R_app * h^2 * m^2
                    ! h is the value of hnew_damp, m is the mass of the vector boson, and pt2 is the
# hdamp 1.0         ! if this flag appears, R_s -> R_s *  h^2 * m^2 / ( h^2 * m^2 + pt2 ), where h i
                    ! The following combination seem to yield a0 consistent with non-negative values
                    ! new_damp 1 + hdamp 0.25; new_damp 1 + hnew_damp 0.5 ;
                    ! Looking at the Bornzerodamp.f routine should clarify all doubts on these optio
                    ! You can experiment with other values. Remember: too small  hnew_damp and/or hd
                    ! check that you get a nice sudakov shape of the vector boson pt.





End of powheg.input content
PDF package: lha
 Random number generator initialized with:     54217137             0             0
-->
<init>
     2212     2212  4.00000E+03  4.00000E+03     -1     -1     -1     -1     -4      1
  2.05136E+03  5.07490E+01  1.00000E+00  10011
</init>
<event>
      5  10011  2.10784E+03  1.00000E+01 -1.00000E+00  8.51592E-02
       4    -1     0     0   501     0  0.000000000E+00  0.000000000E+00  1.002702073E+01  1.002702073E+01  0.000000000E+00  0.00000E+00  9.000E+00
      -4    -1     0     0     0   501  0.000000000E+00  0.000000000E+00 -1.400228209E+01  1.400228209E+01  0.000000000E+00  0.00000E+00  9.000E+00
      23     2     1     2     0     0  0.000000000E+00  0.000000000E+00 -3.975261365E+00  2.402930282E+01  2.369820017E+01  0.00000E+00  9.000E+00
      11     1     3     3     0     0 -7.529144298E+00  2.197326749E+00  7.018179413E+00  1.052478509E+01  5.109989100E-04  0.00000E+00  9.000E+00
     -11     1     3     3     0     0  7.529144298E+00 -2.197326749E+00 -1.099344078E+01  1.350451773E+01  5.109989100E-04  0.00000E+00  9.000E+00
#rwgt            1           9   23611.808561845151         54217137          27           0
#pdf   4 -4 0.25067552E-02 0.35005705E-02 0.23698200E+02 0.58003215E+00 0.49687726E+00
</event>
<event>
      5  10011  2.10784E+03  1.00000E+01 -1.00000E+00  1.93478E-01
      -3    -1     0     0     0   501  0.000000000E+00  0.000000000E+00  2.414476893E+02  2.414476893E+02  0.000000000E+00  0.00000E+00  9.000E+00
       3    -1     0     0   501     0  0.000000000E+00  0.000000000E+00 -9.345752007E+00  9.345752007E+00  0.000000000E+00  0.00000E+00  9.000E+00
      23     2     1     2     0     0  0.000000000E+00  0.000000000E+00  2.321019373E+02  2.507934413E+02  9.500547830E+01  0.00000E+00  9.000E+00
      11     1     3     3     0     0  4.180357371E+00 -2.337338637E+01  2.246585253E+02  2.259098129E+02  5.109989100E-04  0.00000E+00  9.000E+00
     -11     1     3     3     0     0 -4.180357371E+00  2.337338637E+01  7.443411942E+00  2.488362835E+01  5.109989100E-04  0.00000E+00  9.000E+00
#rwgt            1           3   145.66186846674373         54217137         321           0
#pdf  -3  3 0.60361922E-01 0.23364380E-02 0.95005478E+02 0.11824695E+00 0.10019472E+01
</event>
<event>
      5  10011  2.10784E+03  1.00000E+01 -1.00000E+00  1.88829E-01
       1    -1     0     0   501     0  0.000000000E+00  0.000000000E+00  2.190695248E+02  2.190695248E+02  0.000000000E+00  0.00000E+00  9.000E+00
      -1    -1     0     0     0   501  0.000000000E+00  0.000000000E+00 -9.736457081E+00  9.736457081E+00  0.000000000E+00  0.00000E+00  9.000E+00
      23     2     1     2     0     0  0.000000000E+00  0.000000000E+00  2.093330677E+02  2.288059818E+02  9.236798202E+01  0.00000E+00  9.000E+00
      11     1     3     3     0     0 -1.323215237E+01  1.093158088E+01 -1.542774997E+00  1.723280220E+01  5.109989100E-04  0.00000E+00  9.000E+00
     -11     1     3     3     0     0  1.323215237E+01 -1.093158088E+01  2.108758427E+02  2.115731796E+02  5.109989100E-04  0.00000E+00  9.000E+00
#rwgt            1           6   83.626628870161525         54217137         612           0
#pdf   1 -1 0.54767381E-01 0.24341143E-02 0.92367982E+02 0.41976563E+00 0.10629242E+01
</event>
<event>
      5  10011  2.10784E+03  1.00000E+01 -1.00000E+00  1.92659E-01
      -2    -1     0     0     0   501  0.000000000E+00  0.000000000E+00  7.444652758E+00  7.444652758E+00  0.000000000E+00  0.00000E+00  9.000E+00
       2    -1     0     0   501     0  0.000000000E+00  0.000000000E+00 -3.063609119E+02  3.063609119E+02  0.000000000E+00  0.00000E+00  9.000E+00
      23     2     1     2     0     0  0.000000000E+00  0.000000000E+00 -2.989162591E+02  3.138055646E+02  9.551440954E+01  0.00000E+00  9.000E+00
      11     1     3     3     0     0  4.605176129E+01 -6.275279228E+00 -1.133772123E+02  1.225338162E+02  5.109989100E-04  0.00000E+00  9.000E+00
     -11     1     3     3     0     0 -4.605176129E+01  6.275279228E+00 -1.855390469E+02  1.912717485E+02  5.109989100E-04  0.00000E+00  9.000E+00
#rwgt            1           4   688.30390819025968         54217137         841           0
#pdf  -2  2 0.18611632E-02 0.76590228E-01 0.95514410E+02 0.12076844E+01 0.64639072E+00
</event>
<event>
      5  10011  2.10784E+03  1.00000E+01 -1.00000E+00  1.32231E-01
      -2    -1     0     0     0   501  0.000000000E+00  0.000000000E+00  7.888471311E-01  7.888471311E-01  0.000000000E+00  0.00000E+00  9.000E+00
       2    -1     0     0   501     0  0.000000000E+00  0.000000000E+00 -1.403588599E+02  1.403588599E+02  0.000000000E+00  0.00000E+00  9.000E+00
      23     2     1     2     0     0  0.000000000E+00  0.000000000E+00 -1.395700128E+02  1.411477071E+02  2.104487434E+01  0.00000E+00  9.000E+00
      11     1     3     3     0     0 -1.077031565E+00  8.944710560E+00 -3.332351344E+01  3.451991298E+01  5.109989100E-04  0.00000E+00  9.000E+00
     -11     1     3     3     0     0  1.077031565E+00 -8.944710560E+00 -1.062464994E+02  1.066277941E+02  5.109989100E-04  0.00000E+00  9.000E+00
#rwgt            1           4   83111.049551156786         54217137        1028           0
#pdf  -2  2 0.19721178E-03 0.35089715E-01 0.21044874E+02 0.19072683E+01 0.66615129E+00
</event>
<event>
      5  10011  2.10784E+03  1.00000E+01 -1.00000E+00  1.89334E-01
      -1    -1     0     0     0   501  0.000000000E+00  0.000000000E+00  1.532366891E+01  1.532366891E+01  0.000000000E+00  0.00000E+00  9.000E+00
       1    -1     0     0   501     0  0.000000000E+00  0.000000000E+00 -1.349293257E+02  1.349293257E+02  0.000000000E+00  0.00000E+00  9.000E+00
      23     2     1     2     0     0  0.000000000E+00  0.000000000E+00 -1.196056567E+02  1.502529946E+02  9.094201038E+01  0.00000E+00  9.000E+00
      11     1     3     3     0     0 -1.371487734E+01 -3.982461000E+01 -3.149714430E+01  5.259436777E+01  5.109989100E-04  0.00000E+00  9.000E+00
     -11     1     3     3     0     0  1.371487734E+01  3.982461000E+01 -8.810851245E+01  9.765862680E+01  5.109989100E-04  0.00000E+00  9.000E+00
#rwgt            1           5   585.76795710239833         54217137        1116           0
#pdf  -1  1 0.38309172E-02 0.33732331E-01 0.90942010E+02 0.86806404E+00 0.47156548E+00
</event>
<event>
      6  10011  2.10784E+03  1.37689E+01 -1.00000E+00  1.80954E-01
       2    -1     0     0   511     0  0.000000000E+00  0.000000000E+00  5.882796305E+02  5.882796305E+02  0.000000000E+00  0.00000E+00  9.000E+00
      -2    -1     0     0     0   501  0.000000000E+00  0.000000000E+00 -7.637017442E+00  7.637017442E+00  0.000000000E+00  0.00000E+00  9.000E+00
      23     2     1     2     0     0 -8.633101357E+00  1.072629163E+01  2.548450254E+02  2.698282368E+02  8.758827902E+01  0.00000E+00  9.000E+00
      11     1     3     3     0     0 -2.651727949E+01 -1.162075952E+01  2.513020303E+01  3.833712650E+01  5.109989100E-04  0.00000E+00  9.000E+00
     -11     1     3     3     0     0  1.788417813E+01  2.234705115E+01  2.297148224E+02  2.314911103E+02  5.109989100E-04  0.00000E+00  9.000E+00
      21     1     1     2   511   501  8.633101357E+00 -1.072629163E+01  3.257975876E+02  3.260884111E+02  3.814697266E-06  0.00000E+00  9.000E+00
#rwgt            1           7   394.78937074124400         54217137        1254           0
#pdf   2 -2 0.64788514E-01 0.18501800E-02 0.87588279E+02 0.65694715E+00 0.11962953E+01
</event>
<event>
      5  10011  2.10784E+03  1.00000E+01 -1.00000E+00  1.82208E-01
      -1    -1     0     0     0   501  0.000000000E+00  0.000000000E+00  1.035261747E+01  1.035261747E+01  0.000000000E+00  0.00000E+00  9.000E+00
       1    -1     0     0   501     0  0.000000000E+00  0.000000000E+00 -1.674575530E+01  1.674575530E+01  0.000000000E+00  0.00000E+00  9.000E+00
      23     2     1     2     0     0  0.000000000E+00  0.000000000E+00 -6.393137832E+00  2.709837277E+01  2.633343114E+01  0.00000E+00  9.000E+00
      11     1     3     3     0     0  2.899870380E+00  1.065004310E+01 -1.058351122E+01  1.529193827E+01  5.109989100E-04  0.00000E+00  9.000E+00
     -11     1     3     3     0     0 -2.899870380E+00 -1.065004310E+01  4.190373384E+00  1.180643450E+01  5.109989100E-04  0.00000E+00  9.000E+00
#rwgt            1           5   4800.3281093693913         54217137        1420           0
#pdf  -1  1 0.25881544E-02 0.41864388E-02 0.26333431E+02 0.85668792E+00 0.78197758E+00
</event>
<event>
      6  10011  2.10784E+03  3.80943E+01 -1.00000E+00  1.46163E-01
      -5    -1     0     0     0   501  0.000000000E+00  0.000000000E+00  1.197558339E+01  1.197558339E+01  0.000000000E+00  0.00000E+00  9.000E+00
      21    -1     0     0   501   511  0.000000000E+00  0.000000000E+00 -4.881436373E+02  4.881436373E+02  0.000000000E+00  0.00000E+00  9.000E+00
      23     2     1     2     0     0  9.517857911E+00  3.688611967E+01 -2.300361116E+02  2.510567617E+02  9.306830566E+01  0.00000E+00  9.000E+00
      11     1     3     3     0     0  1.777661932E+01 -2.774438316E+01 -1.052037433E+02  1.102433063E+02  5.109989100E-04  0.00000E+00  9.000E+00
     -11     1     3     3     0     0 -8.258761405E+00  6.463050283E+01 -1.248323683E+02  1.408134554E+02  5.109989100E-04  0.00000E+00  9.000E+00
      -5     1     1     2     0   511 -9.517857911E+00 -3.688611967E+01 -2.461319423E+02  2.490624590E+02  0.000000000E+00  0.00000E+00  9.000E+00
#rwgt            1           1   29.782827814545765         54217137        1451           0
#pdf  -5  5 0.24317584E-02 0.55654875E-01 0.93068306E+02 0.57812765E+00 0.41872918E-01
</event>
<event>
      6  10011  2.10784E+03  2.42309E+01 -1.00000E+00  1.59769E-01
      -2    -1     0     0     0   501  0.000000000E+00  0.000000000E+00  1.314252498E+01  1.314252498E+01  0.000000000E+00  0.00000E+00  9.000E+00
       2    -1     0     0   511     0  0.000000000E+00  0.000000000E+00 -2.659817044E+02  2.659817044E+02  0.000000000E+00  0.00000E+00  9.000E+00
      23     2     1     2     0     0  6.620770354E+00  2.330884285E+01 -2.006767068E+02  2.216084898E+02  9.084076908E+01  0.00000E+00  9.000E+00
      11     1     3     3     0     0 -3.408319486E+01  2.169935357E+00 -3.197951925E+01  4.678741757E+01  5.109989100E-04  0.00000E+00  9.000E+00
     -11     1     3     3     0     0  4.070396522E+01  2.113890749E+01 -1.686971876E+02  1.748210722E+02  5.109989100E-04  0.00000E+00  9.000E+00
      21     1     1     2   511   501 -6.620770354E+00 -2.330884285E+01 -5.216247268E+01  5.751573968E+01  0.000000000E+00  0.00000E+00  9.000E+00
#rwgt            1           4   660.11667769370865         54217137        1524           0
#pdf  -2  2 0.25280811E-02 0.51002402E-01 0.90840769E+02 0.10566892E+01 0.66851481E+00
</event>
<event>
      6  10011  2.10784E+03  1.37298E+01 -1.00000E+00  1.81076E-01
      -2    -1     0     0     0   511  0.000000000E+00  0.000000000E+00  2.073801302E+01  2.073801302E+01  0.000000000E+00  0.00000E+00  9.000E+00
       2    -1     0     0   501     0  0.000000000E+00  0.000000000E+00 -8.739737897E+02  8.739737897E+02  0.000000000E+00  0.00000E+00  9.000E+00
      23     2     1     2     0     0  1.352092176E+01 -2.386090998E+00 -8.689884554E+02  8.738154958E+02  9.068669306E+01  0.00000E+00  9.000E+00
      11     1     3     3     0     0 -8.065508871E+00  2.217263309E+01 -7.512716330E+02  7.516420323E+02  5.109989100E-04  0.00000E+00  9.000E+00
     -11     1     3     3     0     0  2.158643063E+01 -2.455872409E+01 -1.177168224E+02  1.221734635E+02  5.109989100E-04  0.00000E+00  9.000E+00
      21     1     1     2   501   511 -1.352092176E+01  2.386090998E+00  1.575267874E+01  2.089630692E+01  7.725644944E-07  0.00000E+00  9.000E+00
#rwgt            1           4   614.89833783397501         54217137        1618           0
#pdf  -2  2 0.59658149E-03 0.21539587E+00 0.90686693E+02 0.18727727E+01 0.49261278E+00
</event>
<event>
      5  10011  2.10784E+03  1.00000E+01 -1.00000E+00  1.94867E-01
       1    -1     0     0   501     0  0.000000000E+00  0.000000000E+00  2.028732773E+02  2.028732773E+02  0.000000000E+00  0.00000E+00  9.000E+00
      -1    -1     0     0     0   501  0.000000000E+00  0.000000000E+00 -3.758707764E+00  3.758707764E+00  0.000000000E+00  0.00000E+00  9.000E+00
      23     2     1     2     0     0  0.000000000E+00  0.000000000E+00  1.991145695E+02  2.066319851E+02  5.522830298E+01  0.00000E+00  9.000E+00
      11     1     3     3     0     0  1.475714946E+00 -7.002411620E+00 -2.291184387E-01  7.159888171E+00  5.109989100E-04  0.00000E+00  9.000E+00
     -11     1     3     3     0     0 -1.475714946E+00  7.002411620E+00  1.993436880E+02  1.994720969E+02  5.109989100E-04  0.00000E+00  9.000E+00
#rwgt            1           6   136.89440364815022         54217137        1662           0
#pdf   1 -1 0.50718319E-01 0.93967694E-03 0.55228303E+02 0.42857952E+00 0.14373440E+01
</event>
<event>
      5  10011  2.10784E+03  1.00000E+01 -1.00000E+00  1.85575E-01
      -2    -1     0     0     0   501  0.000000000E+00  0.000000000E+00  1.554283588E+01  1.554283588E+01  0.000000000E+00  0.00000E+00  9.000E+00
       2    -1     0     0   501     0  0.000000000E+00  0.000000000E+00 -1.380032894E+02  1.380032894E+02  0.000000000E+00  0.00000E+00  9.000E+00
      23     2     1     2     0     0  0.000000000E+00  0.000000000E+00 -1.224604535E+02  1.535461252E+02  9.262747923E+01  0.00000E+00  9.000E+00
      11     1     3     3     0     0 -1.414985327E+01  7.008159849E+00 -1.334033970E+02  1.343346530E+02  5.109989100E-04  0.00000E+00  9.000E+00
     -11     1     3     3     0     0  1.414985327E+01 -7.008159849E+00  1.094294356E+01  1.921147225E+01  5.109989100E-04  0.00000E+00  9.000E+00
#rwgt            1           4   80.905654604546768         54217137        1773           0
#pdf  -2  2 0.38857090E-02 0.34500822E-01 0.92627479E+02 0.88115147E+00 0.68738843E+00
</event>
<event>
      5  10011  2.10784E+03  1.00000E+01 -1.00000E+00  1.91661E-01
      -2    -1     0     0     0   501  0.000000000E+00  0.000000000E+00  1.354064553E+00  1.354064553E+00  0.000000000E+00  0.00000E+00  9.000E+00
       2    -1     0     0   501     0  0.000000000E+00  0.000000000E+00 -1.079767348E+02  1.079767348E+02  0.000000000E+00  0.00000E+00  9.000E+00
      23     2     1     2     0     0  0.000000000E+00  0.000000000E+00 -1.066226702E+02  1.093307993E+02  2.418325612E+01  0.00000E+00  9.000E+00
      11     1     3     3     0     0  3.488422573E+00  6.182418813E+00 -9.057905404E+00  1.150812952E+01  5.109989100E-04  0.00000E+00  9.000E+00
     -11     1     3     3     0     0 -3.488422573E+00 -6.182418813E+00 -9.756476483E+01  9.782266982E+01  5.109989100E-04  0.00000E+00  9.000E+00
#rwgt            1           4   11872.989631895603         54217137        2077           0
#pdf  -2  2 0.33851614E-03 0.26994184E-01 0.24183256E+02 0.16881355E+01 0.67288874E+00
</event>
<event>
      5  10011  2.10784E+03  1.00000E+01 -1.00000E+00  1.93167E-01
      -3    -1     0     0     0   501  0.000000000E+00  0.000000000E+00  1.378759822E+01  1.378759822E+01  0.000000000E+00  0.00000E+00  9.000E+00
       3    -1     0     0   501     0  0.000000000E+00  0.000000000E+00 -1.832941131E+02  1.832941131E+02  0.000000000E+00  0.00000E+00  9.000E+00
      23     2     1     2     0     0  0.000000000E+00  0.000000000E+00 -1.695065149E+02  1.970817113E+02  1.005422416E+02  0.00000E+00  9.000E+00
      11     1     3     3     0     0  4.937177511E+01 -2.257887844E+00 -1.027737046E+02  1.140399254E+02  5.109989100E-04  0.00000E+00  9.000E+00
     -11     1     3     3     0     0 -4.937177511E+01  2.257887844E+00 -6.673281027E+01  8.304178588E+01  5.109989100E-04  0.00000E+00  9.000E+00
#rwgt            1           3   228.05160710319666         54217137        2262           0
#pdf  -3  3 0.34468996E-02 0.45823528E-01 0.10054224E+03 0.84386379E+00 0.15743055E+00
</event>
<event>
      5  10011  2.10784E+03  1.00000E+01 -1.00000E+00  1.93793E-01
      -2    -1     0     0     0   501  0.000000000E+00  0.000000000E+00  1.566650568E+00  1.566650568E+00  0.000000000E+00  0.00000E+00  9.000E+00
       2    -1     0     0   501     0  0.000000000E+00  0.000000000E+00 -1.459479621E+03  1.459479621E+03  0.000000000E+00  0.00000E+00  9.000E+00
      23     2     1     2     0     0  0.000000000E+00  0.000000000E+00 -1.457912971E+03  1.461046272E+03  9.563460834E+01  0.00000E+00  9.000E+00
      11     1     3     3     0     0 -8.700720956E+00 -7.625420189E+00 -1.437775067E+03  1.437821614E+03  5.109989100E-04  0.00000E+00  9.000E+00
     -11     1     3     3     0     0  8.700720956E+00  7.625420189E+00 -2.013790354E+01  2.322465797E+01  5.109989100E-04  0.00000E+00  9.000E+00
#rwgt            1           4   13077.043511485903         54217137        2333           0
#pdf  -2  2 0.39166264E-03 0.36486991E+00 0.95634608E+02 0.22125270E+01 0.27245917E+00
</event>
<event>
      5  10011  2.10784E+03  1.00000E+01 -1.00000E+00  1.77419E-01
       2    -1     0     0   501     0  0.000000000E+00  0.000000000E+00  1.145647439E+00  1.145647439E+00  0.000000000E+00  0.00000E+00  9.000E+00
      -2    -1     0     0     0   501  0.000000000E+00  0.000000000E+00 -8.845902690E+01  8.845902690E+01  0.000000000E+00  0.00000E+00  9.000E+00
      23     2     1     2     0     0  0.000000000E+00  0.000000000E+00 -8.731337946E+01  8.960467434E+01  2.013383795E+01  0.00000E+00  9.000E+00
      11     1     3     3     0     0 -9.748358885E+00  2.015760438E+00 -3.698239737E+01  3.829871417E+01  5.109989100E-04  0.00000E+00  9.000E+00
     -11     1     3     3     0     0  9.748358885E+00 -2.015760438E+00 -5.033098209E+01  5.130596018E+01  5.109989100E-04  0.00000E+00  9.000E+00
#rwgt            1           7   22145.312175514951         54217137        2392           0
#pdf   2 -2 0.28641186E-03 0.22114757E-01 0.20133838E+02 0.17103313E+01 0.34753630E+00
</event>
<event>
      5  10011  2.10784E+03  1.00000E+01 -1.00000E+00  1.90914E-01
      -2    -1     0     0     0   501  0.000000000E+00  0.000000000E+00  3.602245274E+01  3.602245274E+01  0.000000000E+00  0.00000E+00  9.000E+00
       2    -1     0     0   501     0  0.000000000E+00  0.000000000E+00 -5.865259241E+01  5.865259241E+01  0.000000000E+00  0.00000E+00  9.000E+00
      23     2     1     2     0     0  0.000000000E+00  0.000000000E+00 -2.263013967E+01  9.467504514E+01  9.193063119E+01  0.00000E+00  9.000E+00
      11     1     3     3     0     0 -3.767241434E+01 -4.633197289E+00 -3.801455345E+01  5.371948988E+01  5.109989100E-04  0.00000E+00  9.000E+00
     -11     1     3     3     0     0  3.767241434E+01  4.633197289E+00  1.538441378E+01  4.095555526E+01  5.109989100E-04  0.00000E+00  9.000E+00
#rwgt            1           4   794.15841054493546         54217137        2465           0
#pdf  -2  2 0.90056132E-02 0.14663148E-01 0.91930631E+02 0.59869654E+00 0.75622246E+00
</event>
<event>
      5  10011  2.10784E+03  1.00000E+01 -1.00000E+00  1.40389E-01
       2    -1     0     0   501     0  0.000000000E+00  0.000000000E+00  1.765795852E+01  1.765795852E+01  0.000000000E+00  0.00000E+00  9.000E+00
      -2    -1     0     0     0   501  0.000000000E+00  0.000000000E+00 -1.292660063E+01  1.292660063E+01  0.000000000E+00  0.00000E+00  9.000E+00
      23     2     1     2     0     0  0.000000000E+00  0.000000000E+00  4.731357892E+00  3.058455914E+01  3.021637818E+01  0.00000E+00  9.000E+00
      11     1     3     3     0     0 -7.065507523E+00  1.310105198E+01 -2.539871305E-01  1.488702352E+01  5.109989100E-04  0.00000E+00  9.000E+00
     -11     1     3     3     0     0  7.065507523E+00 -1.310105198E+01  4.985345022E+00  1.569753563E+01  5.109989100E-04  0.00000E+00  9.000E+00
#rwgt            1           7   15705.597011960666         54217137        2562           0
#pdf   2 -2 0.44144896E-02 0.32316502E-02 0.30216378E+02 0.87335388E+00 0.81886049E+00
</event>
<event>
      6  10011  2.10784E+03  5.42488E+01 -1.00000E+00  1.37081E-01
      21    -1     0     0   501   511  0.000000000E+00  0.000000000E+00  1.286706544E+02  1.286706544E+02  0.000000000E+00  0.00000E+00  9.000E+00
      -2    -1     0     0     0   501  0.000000000E+00  0.000000000E+00 -3.539839455E+01  3.539839455E+01  0.000000000E+00  0.00000E+00  9.000E+00
      23     2     1     2     0     0 -4.768163246E+01  2.587267961E+01  3.038090780E+01  8.101330993E+01  5.193479761E+01  0.00000E+00  9.000E+00
      11     1     3     3     0     0 -2.306794814E+01 -2.254738848E+00  3.640256752E+01  4.315508082E+01  5.109989100E-04  0.00000E+00  9.000E+00
     -11     1     3     3     0     0 -2.461368432E+01  2.812741846E+01 -6.021659719E+00  3.785822911E+01  5.109989100E-04  0.00000E+00  9.000E+00
      -2     1     1     2     0   511  4.768163246E+01 -2.587267961E+01  6.289135208E+01  8.305573906E+01  0.000000000E+00  0.00000E+00  9.000E+00
#rwgt            1           7   65.593818921722331         54217137        2745           0
#pdf   2 -2 0.96290960E-02 0.43767466E-02 0.51934798E+02 0.78480704E+00 0.78341902E+00
</event>
<event>
      5  10011  2.10784E+03  1.00000E+01 -1.00000E+00  1.95021E-01
       1    -1     0     0   501     0  0.000000000E+00  0.000000000E+00  1.509459068E+01  1.509459068E+01  0.000000000E+00  0.00000E+00  9.000E+00
      -1    -1     0     0     0   501  0.000000000E+00  0.000000000E+00 -1.216008660E+02  1.216008660E+02  0.000000000E+00  0.00000E+00  9.000E+00
      23     2     1     2     0     0  0.000000000E+00  0.000000000E+00 -1.065062753E+02  1.366954566E+02  8.568582842E+01  0.00000E+00  9.000E+00
      11     1     3     3     0     0  7.196618178E+00 -4.105930929E+01 -6.903438266E+01  8.064368656E+01  5.109989100E-04  0.00000E+00  9.000E+00
     -11     1     3     3     0     0 -7.196618178E+00  4.105930929E+01 -3.747189262E+01  5.605177008E+01  5.109989100E-04  0.00000E+00  9.000E+00
#rwgt            1           6   258.71737371501484         54217137        2882           0
#pdf   1 -1 0.37736477E-02 0.30400216E-01 0.85685828E+02 0.94385428E+00 0.26618171E+00
</event>
<event>
      5  10011  2.10784E+03  1.00000E+01 -1.00000E+00  1.94645E-01
      -1    -1     0     0     0   501  0.000000000E+00  0.000000000E+00  1.965680915E+01  1.965680915E+01  0.000000000E+00  0.00000E+00  9.000E+00
       1    -1     0     0   501     0  0.000000000E+00  0.000000000E+00 -5.477918937E+00  5.477918937E+00  0.000000000E+00  0.00000E+00  9.000E+00
      23     2     1     2     0     0  0.000000000E+00  0.000000000E+00  1.417889021E+01  2.513472808E+01  2.075364133E+01  0.00000E+00  9.000E+00
      11     1     3     3     0     0  3.035123145E-01  3.202578180E+00 -4.858762376E+00  5.827194763E+00  5.109989100E-04  0.00000E+00  9.000E+00
     -11     1     3     3     0     0 -3.035123145E-01 -3.202578180E+00  1.903765258E+01  1.930753332E+01  5.109989100E-04  0.00000E+00  9.000E+00
#rwgt            1           5   4199.7077870106268         54217137        3091           0
#pdf  -1  1 0.49142023E-02 0.13694797E-02 0.20753641E+02 0.64031032E+00 0.10603906E+01
</event>
<event>
      6  10011  2.10784E+03  8.93491E+01 -1.00000E+00  1.26066E-01
      -1    -1     0     0     0   501  0.000000000E+00  0.000000000E+00  5.002463796E+01  5.002463796E+01  0.000000000E+00  0.00000E+00  9.000E+00
      21    -1     0     0   501   511  0.000000000E+00  0.000000000E+00 -3.137395481E+02  3.137395481E+02  0.000000000E+00  0.00000E+00  9.000E+00
      23     2     1     2     0     0  8.291839586E+01 -3.328359820E+01 -5.854685208E+01  1.399848520E+02  9.046970009E+01  0.00000E+00  9.000E+00
      11     1     3     3     0     0 -1.282385782E+01 -2.803857883E+01 -9.373673183E+00  3.222543998E+01  5.109989100E-04  0.00000E+00  9.000E+00
     -11     1     3     3     0     0  9.574225369E+01 -5.245019372E+00 -4.917317890E+01  1.077594121E+02  5.109989100E-04  0.00000E+00  9.000E+00
      -1     1     1     2     0   511 -8.291839586E+01  3.328359820E+01 -2.051680581E+02  2.237793340E+02  0.000000000E+00  0.00000E+00  9.000E+00
#rwgt            1           5   523.33217846525463         54217137        3289           0
#pdf  -1  1 0.72428881E-02 0.17656904E-01 0.90469700E+02 0.63974217E+00 0.56061436E+00
</event>
<event>
      5  10011  2.10784E+03  1.00000E+01 -1.00000E+00  1.91593E-01
       2    -1     0     0   501     0  0.000000000E+00  0.000000000E+00  6.862333497E+02  6.862333497E+02  0.000000000E+00  0.00000E+00  9.000E+00
      -2    -1     0     0     0   501  0.000000000E+00  0.000000000E+00 -2.068911958E-01  2.068911958E-01  0.000000000E+00  0.00000E+00  9.000E+00
      23     2     1     2     0     0  0.000000000E+00  0.000000000E+00  6.860264585E+02  6.864402409E+02  2.383070610E+01  0.00000E+00  9.000E+00
      11     1     3     3     0     0  2.022343694E-01 -2.735249884E+00  6.770169547E+02  6.770225103E+02  5.109989100E-04  0.00000E+00  9.000E+00
     -11     1     3     3     0     0 -2.022343694E-01  2.735249884E+00  9.009503806E+00  9.417730606E+00  5.109989100E-04  0.00000E+00  9.000E+00
#rwgt            1           7   129172.10275932544         54217137        3316           0
#pdf   2 -2 0.17155834E+00 0.51722799E-04 0.23830706E+02 0.59612174E+00 0.29266378E+01
</event>
<event>
      5  10011  2.10784E+03  1.00000E+01 -1.00000E+00  1.76729E-01
      -1    -1     0     0     0   501  0.000000000E+00  0.000000000E+00  1.296958720E+01  1.296958720E+01  0.000000000E+00  0.00000E+00  9.000E+00
       1    -1     0     0   501     0  0.000000000E+00  0.000000000E+00 -1.504631773E+02  1.504631773E+02  0.000000000E+00  0.00000E+00  9.000E+00
      23     2     1     2     0     0  0.000000000E+00  0.000000000E+00 -1.374935901E+02  1.634327645E+02  8.835033217E+01  0.00000E+00  9.000E+00
      11     1     3     3     0     0 -1.725073812E+01  4.059483419E+01 -6.424720170E+01  7.793094030E+01  5.109989100E-04  0.00000E+00  9.000E+00
     -11     1     3     3     0     0  1.725073812E+01 -4.059483419E+01 -7.324638837E+01  8.550182418E+01  5.109989100E-04  0.00000E+00  9.000E+00
#rwgt            1           5   447.38797452342334         54217137        3365           0
#pdf  -1  1 0.32423968E-02 0.37615794E-01 0.88350332E+02 0.93258722E+00 0.45913999E+00
</event>
<event>
      5  10011  2.10784E+03  1.00000E+01 -1.00000E+00  1.88675E-01
      -3    -1     0     0     0   501  0.000000000E+00  0.000000000E+00  3.051435118E+02  3.051435118E+02  0.000000000E+00  0.00000E+00  9.000E+00
       3    -1     0     0   501     0  0.000000000E+00  0.000000000E+00 -4.429920393E-01  4.429920393E-01  0.000000000E+00  0.00000E+00  9.000E+00
      23     2     1     2     0     0  0.000000000E+00  0.000000000E+00  3.047005198E+02  3.055865039E+02  2.325305542E+01  0.00000E+00  9.000E+00
      11     1     3     3     0     0 -2.274390856E+00 -6.180471596E+00  2.643236323E+01  2.724042784E+01  5.109989100E-04  0.00000E+00  9.000E+00
     -11     1     3     3     0     0  2.274390856E+00  6.180471596E+00  2.782681566E+02  2.783460760E+02  5.109989100E-04  0.00000E+00  9.000E+00
#rwgt            1           3   882.81454339696222         54217137        3527           0
#pdf  -3  3 0.76285878E-01 0.11074801E-03 0.23253055E+02 0.92060656E-01 0.21814240E+01
</event>
<event>
      5  10011  2.10784E+03  1.00000E+01 -1.00000E+00  1.76213E-01
      -1    -1     0     0     0   501  0.000000000E+00  0.000000000E+00  6.324217382E+01  6.324217382E+01  0.000000000E+00  0.00000E+00  9.000E+00
       1    -1     0     0   501     0  0.000000000E+00  0.000000000E+00 -3.311697192E+01  3.311697192E+01  0.000000000E+00  0.00000E+00  9.000E+00
      23     2     1     2     0     0  0.000000000E+00  0.000000000E+00  3.012520190E+01  9.635914575E+01  9.152899639E+01  0.00000E+00  9.000E+00
      11     1     3     3     0     0 -1.878507450E+01  1.607911999E+00  5.896362519E+01  6.190455153E+01  5.109989100E-04  0.00000E+00  9.000E+00
     -11     1     3     3     0     0  1.878507450E+01 -1.607911999E+00 -2.883842329E+01  3.445459422E+01  5.109989100E-04  0.00000E+00  9.000E+00
#rwgt            1           5   368.38760992781874         54217137        3573           0
#pdf  -1  1 0.15810543E-01 0.82792430E-02 0.91528996E+02 0.41532265E+00 0.71626428E+00
</event>
<event>
      5  10011  2.10784E+03  1.00000E+01 -1.00000E+00  1.86851E-01
      -1    -1     0     0     0   501  0.000000000E+00  0.000000000E+00  6.662392727E-01  6.662392727E-01  0.000000000E+00  0.00000E+00  9.000E+00
       1    -1     0     0   501     0  0.000000000E+00  0.000000000E+00 -2.673719244E+02  2.673719244E+02  0.000000000E+00  0.00000E+00  9.000E+00
      23     2     1     2     0     0  0.000000000E+00  0.000000000E+00 -2.667056852E+02  2.680381637E+02  2.669334572E+01  0.00000E+00  9.000E+00
      11     1     3     3     0     0  4.927409832E+00 -5.066343635E+00 -2.470408665E+02  2.471419368E+02  5.109989100E-04  0.00000E+00  9.000E+00
     -11     1     3     3     0     0 -4.927409832E+00  5.066343635E+00 -1.966481863E+01  2.089622687E+01  5.109989100E-04  0.00000E+00  9.000E+00
#rwgt            1           5   209.15190075522494         54217137        3609           0
#pdf  -1  1 0.16655982E-03 0.66842981E-01 0.26693346E+02 0.21600262E+01 0.40771962E+00
</event>
<event>
      5  10011  2.10784E+03  1.00000E+01 -1.00000E+00  1.80503E-01
      -2    -1     0     0     0   501  0.000000000E+00  0.000000000E+00  6.134066981E+00  6.134066981E+00  0.000000000E+00  0.00000E+00  9.000E+00
       2    -1     0     0   501     0  0.000000000E+00  0.000000000E+00 -3.286926213E+02  3.286926213E+02  0.000000000E+00  0.00000E+00  9.000E+00
      23     2     1     2     0     0  0.000000000E+00  0.000000000E+00 -3.225585543E+02  3.348266883E+02  8.980473384E+01  0.00000E+00  9.000E+00
      11     1     3     3     0     0 -2.511283728E+01  3.511589820E+01 -1.152459187E+02  1.230666595E+02  5.109989100E-04  0.00000E+00  9.000E+00
     -11     1     3     3     0     0  2.511283728E+01 -3.511589820E+01 -2.073126356E+02  2.117600287E+02  5.109989100E-04  0.00000E+00  9.000E+00
#rwgt            1           4   546.25750313804099         54217137        3670           0
#pdf  -2  2 0.15335167E-02 0.82173155E-01 0.89804734E+02 0.12952511E+01 0.64237531E+00
</event>
<event>
      6  10011  2.10784E+03  1.08358E+01 -1.00000E+00  1.91805E-01
      -4    -1     0     0     0   501  0.000000000E+00  0.000000000E+00  3.244469061E+02  3.244469061E+02  0.000000000E+00  0.00000E+00  9.000E+00
      21    -1     0     0   501   511  0.000000000E+00  0.000000000E+00 -9.329952538E+00  9.329952538E+00  0.000000000E+00  0.00000E+00  9.000E+00
      23     2     1     2     0     0  2.856553692E+00 -1.045252761E+01  3.087261872E+02  3.211968297E+02  8.796663888E+01  0.00000E+00  9.000E+00
      11     1     3     3     0     0  2.683358565E+00  1.052672506E+01 -8.630062089E-01  1.089757467E+01  5.109989100E-04  0.00000E+00  9.000E+00
     -11     1     3     3     0     0  1.731951269E-01 -2.097925267E+01  3.095891934E+02  3.102992551E+02  5.109989100E-04  0.00000E+00  9.000E+00
      -4     1     1     2     0   511 -2.856553692E+00  1.045252761E+01  6.390766423E+00  1.258002893E+01  0.000000000E+00  0.00000E+00  9.000E+00
#rwgt            1           2   21.677966551930886         54217137        3723           0
#pdf  -4  4 0.78149703E-01 0.15471367E-02 0.87966639E+02 0.41032102E-01 0.98915216E+00
</event>
<event>
      5  10011  2.10784E+03  1.00000E+01 -1.00000E+00  1.50641E-01
      -2    -1     0     0     0   501  0.000000000E+00  0.000000000E+00  5.929864706E-01  5.929864706E-01  0.000000000E+00  0.00000E+00  9.000E+00
       2    -1     0     0   501     0  0.000000000E+00  0.000000000E+00 -5.707990283E+02  5.707990283E+02  0.000000000E+00  0.00000E+00  9.000E+00
      23     2     1     2     0     0  0.000000000E+00  0.000000000E+00 -5.702060418E+02  5.713920147E+02  3.679544000E+01  0.00000E+00  9.000E+00
      11     1     3     3     0     0 -1.309388545E+01 -8.793490571E+00 -4.321778310E+02  4.324655512E+02  5.109989100E-04  0.00000E+00  9.000E+00
     -11     1     3     3     0     0  1.309388545E+01  8.793490571E+00 -1.380282108E+02  1.389264636E+02  5.109989100E-04  0.00000E+00  9.000E+00
#rwgt            1           4   2538.6120526887707         54217137        3893           0
#pdf  -2  2 0.14824662E-03 0.14269976E+00 0.36795440E+02 0.24642449E+01 0.60881456E+00
</event>
<event>
      5  10011  2.10784E+03  1.00000E+01 -1.00000E+00  1.89516E-01
      -2    -1     0     0     0   501  0.000000000E+00  0.000000000E+00  6.012373439E+00  6.012373439E+00  0.000000000E+00  0.00000E+00  9.000E+00
       2    -1     0     0   501     0  0.000000000E+00  0.000000000E+00 -5.691064673E+01  5.691064673E+01  0.000000000E+00  0.00000E+00  9.000E+00
      23     2     1     2     0     0  0.000000000E+00  0.000000000E+00 -5.089827329E+01  6.292302017E+01  3.699557059E+01  0.00000E+00  9.000E+00
      11     1     3     3     0     0  9.331473873E+00 -6.184061554E+00 -4.031248810E-01  1.120185395E+01  5.109989100E-04  0.00000E+00  9.000E+00
     -11     1     3     3     0     0 -9.331473873E+00  6.184061554E+00 -5.049514841E+01  5.172116622E+01  5.109989100E-04  0.00000E+00  9.000E+00
#rwgt            1           4   1226.7688277968634         54217137        3978           0
#pdf  -2  2 0.15030934E-02 0.14227662E-01 0.36995571E+02 0.11278529E+01 0.72169245E+00
</event>
<event>
      5  10011  2.10784E+03  1.00000E+01 -1.00000E+00  1.91733E-01
       3    -1     0     0   501     0  0.000000000E+00  0.000000000E+00  1.514607556E+00  1.514607556E+00  0.000000000E+00  0.00000E+00  9.000E+00
      -3    -1     0     0     0   501  0.000000000E+00  0.000000000E+00 -6.625243346E+01  6.625243346E+01  0.000000000E+00  0.00000E+00  9.000E+00
      23     2     1     2     0     0  0.000000000E+00  0.000000000E+00 -6.473782590E+01  6.776704101E+01  2.003461368E+01  0.00000E+00  9.000E+00
      11     1     3     3     0     0  1.157886401E+00  9.396002328E+00 -4.344414092E+01  4.446368114E+01  5.109989100E-04  0.00000E+00  9.000E+00
     -11     1     3     3     0     0 -1.157886401E+00 -9.396002328E+00 -2.129368499E+01  2.330335987E+01  5.109989100E-04  0.00000E+00  9.000E+00
#rwgt            1           8   39643.260037681721         54217137        4209           0
#pdf   3 -3 0.37865189E-03 0.16563108E-01 0.20034614E+02 0.14183858E+01 0.31082231E+00
</event>
<event>
      6  10011  2.10784E+03  1.00576E+01 -1.00000E+00  1.95462E-01
       1    -1     0     0   501     0  0.000000000E+00  0.000000000E+00  3.554798979E+02  3.554798979E+02  0.000000000E+00  0.00000E+00  9.000E+00
      21    -1     0     0   511   501  0.000000000E+00  0.000000000E+00 -1.467488863E+01  1.467488863E+01  0.000000000E+00  0.00000E+00  9.000E+00
      23     2     1     2     0     0  4.645759778E+00 -8.920284474E+00  3.464911962E+02  3.586011170E+02  9.185563395E+01  0.00000E+00  9.000E+00
      11     1     3     3     0     0 -3.889875700E+00 -4.833200270E+01  2.372598524E+02  2.421638932E+02  5.109989100E-04  0.00000E+00  9.000E+00
     -11     1     3     3     0     0  8.535635479E+00  3.941171823E+01  1.092313438E+02  1.164372238E+02  5.109989100E-04  0.00000E+00  9.000E+00
       1     1     1     2   511     0 -4.645759778E+00  8.920284474E+00 -5.686186918E+00  1.155366958E+01  0.000000000E+00  0.00000E+00  9.000E+00
#rwgt            1           6   684.69452873813407         54217137        4309           0
#pdf   1 -1 0.87612919E-01 0.15047470E-02 0.91855634E+02 0.36919518E+00 0.12998005E+01
</event>
<event>
      5  10011  2.10784E+03  1.00000E+01 -1.00000E+00  1.20011E-01
       2    -1     0     0   501     0  0.000000000E+00  0.000000000E+00  1.905290030E+01  1.905290030E+01  0.000000000E+00  0.00000E+00  9.000E+00
      -2    -1     0     0     0   501  0.000000000E+00  0.000000000E+00 -5.841309463E+00  5.841309463E+00  0.000000000E+00  0.00000E+00  9.000E+00
      23     2     1     2     0     0  0.000000000E+00  0.000000000E+00  1.321159084E+01  2.489420976E+01  2.109918357E+01  0.00000E+00  9.000E+00
      11     1     3     3     0     0 -4.303386153E+00 -2.865609805E+00 -4.244035589E+00  6.688997703E+00  5.109989100E-04  0.00000E+00  9.000E+00
     -11     1     3     3     0     0  4.303386153E+00  2.865609805E+00  1.745562643E+01  1.820521206E+01  5.109989100E-04  0.00000E+00  9.000E+00
#rwgt            1           7   81232.576682673753         54217137        4407           0
#pdf   2 -2 0.47632251E-02 0.14603274E-02 0.21099184E+02 0.81583951E+00 0.10153551E+01
</event>
<event>
      5  10011  2.10784E+03  1.00000E+01 -1.00000E+00  1.94231E-01
      -2    -1     0     0     0   501  0.000000000E+00  0.000000000E+00  1.601294115E+00  1.601294115E+00  0.000000000E+00  0.00000E+00  9.000E+00
       2    -1     0     0   501     0  0.000000000E+00  0.000000000E+00 -1.425921678E+03  1.425921678E+03  0.000000000E+00  0.00000E+00  9.000E+00
      23     2     1     2     0     0  0.000000000E+00  0.000000000E+00 -1.424320384E+03  1.427522972E+03  9.556819535E+01  0.00000E+00  9.000E+00
      11     1     3     3     0     0 -2.233532519E+01  4.222744931E+01 -7.291634678E+02  7.307266158E+02  5.109989100E-04  0.00000E+00  9.000E+00
     -11     1     3     3     0     0  2.233532519E+01 -4.222744931E+01 -6.951569159E+02  6.967963562E+02  5.109989100E-04  0.00000E+00  9.000E+00
#rwgt            1           4   1920.3716319856671         54217137        4445           0
#pdf  -2  2 0.40032353E-03 0.35648042E+00 0.95568195E+02 0.21944439E+01 0.28441122E+00
</event>
<event>
      5  10011  2.10784E+03  1.00000E+01 -1.00000E+00  1.86749E-01
      -4    -1     0     0     0   501  0.000000000E+00  0.000000000E+00  1.823895014E+02  1.823895014E+02  0.000000000E+00  0.00000E+00  9.000E+00
       4    -1     0     0   501     0  0.000000000E+00  0.000000000E+00 -2.005531784E+00  2.005531784E+00  0.000000000E+00  0.00000E+00  9.000E+00
      23     2     1     2     0     0  0.000000000E+00  0.000000000E+00  1.803839696E+02  1.843950331E+02  3.825116688E+01  0.00000E+00  9.000E+00
      11     1     3     3     0     0  1.082227780E+01  8.719756044E+00  2.685384465E+01  3.023714297E+01  5.109989100E-04  0.00000E+00  9.000E+00
     -11     1     3     3     0     0 -1.082227780E+01 -8.719756044E+00  1.535301249E+02  1.541578902E+02  5.109989100E-04  0.00000E+00  9.000E+00
#rwgt            1           2   242.07262870471195         54217137        4534           0
#pdf  -4  4 0.45597375E-01 0.50138295E-03 0.38251167E+02 0.84663041E-01 0.13047926E+01
</event>
<event>
      6  10011  2.10784E+03  3.98415E+01 -1.00000E+00  1.44943E-01
      -1    -1     0     0     0   501  0.000000000E+00  0.000000000E+00  2.104885465E+01  2.104885465E+01  0.000000000E+00  0.00000E+00  9.000E+00
      21    -1     0     0   501   511  0.000000000E+00  0.000000000E+00 -2.366960826E+02  2.366960826E+02  0.000000000E+00  0.00000E+00  9.000E+00
      23     2     1     2     0     0  2.594630225E+01 -3.023460466E+01 -1.432332476E+02  1.750943082E+02  9.249276542E+01  0.00000E+00  9.000E+00
      11     1     3     3     0     0  4.493268565E+01  1.820051840E+01 -6.350315428E+01  7.989277635E+01  5.109989100E-04  0.00000E+00  9.000E+00
     -11     1     3     3     0     0 -1.898638341E+01 -4.843512305E+01 -7.973009330E+01  9.520153191E+01  5.109989100E-04  0.00000E+00  9.000E+00
      -1     1     1     2     0   511 -2.594630225E+01  3.023460466E+01 -7.241398035E+01  8.265062897E+01  0.000000000E+00  0.00000E+00  9.000E+00
#rwgt            1           5   3665.2085716207671         54217137        4602           0
#pdf  -1  1 0.36577227E-02 0.36544732E-01 0.92492765E+02 0.88816297E+00 0.46253426E+00
</event>
<event>
      5  10011  2.10784E+03  1.00000E+01 -1.00000E+00  1.84264E-01
      -3    -1     0     0     0   501  0.000000000E+00  0.000000000E+00  4.858683779E+02  4.858683779E+02  0.000000000E+00  0.00000E+00  9.000E+00
       3    -1     0     0   501     0  0.000000000E+00  0.000000000E+00 -4.286393373E+00  4.286393373E+00  0.000000000E+00  0.00000E+00  9.000E+00
      23     2     1     2     0     0  0.000000000E+00  0.000000000E+00  4.815819846E+02  4.901547713E+02  9.127152887E+01  0.00000E+00  9.000E+00
      11     1     3     3     0     0 -1.548708217E+01  4.165151616E+01  1.850007949E+02  1.902629566E+02  5.109989100E-04  0.00000E+00  9.000E+00
     -11     1     3     3     0     0  1.548708217E+01 -4.165151616E+01  2.965811897E+02  2.998918148E+02  5.109989100E-04  0.00000E+00  9.000E+00
#rwgt            1           3   53.589281444709570         54217137        4627           0
#pdf  -3  3 0.12146709E+00 0.10715983E-02 0.91271529E+02 0.46557922E-01 0.13913583E+01
</event>
<event>
      6  10011  2.10784E+03  1.52450E+01 -1.00000E+00  1.76717E-01
      -2    -1     0     0     0   511  0.000000000E+00  0.000000000E+00  4.456759065E+00  4.456759065E+00  0.000000000E+00  0.00000E+00  9.000E+00
       2    -1     0     0   501     0  0.000000000E+00  0.000000000E+00 -1.079098464E+02  1.079098464E+02  0.000000000E+00  0.00000E+00  9.000E+00
      23     2     1     2     0     0 -1.108185063E+01  1.046913569E+01 -7.942228360E+01  8.390804360E+01  2.236627892E+01  0.00000E+00  9.000E+00
      11     1     3     3     0     0 -5.905394213E-01  1.542522542E+01 -4.343602492E+01  4.609744653E+01  5.109989100E-04  0.00000E+00  9.000E+00
     -11     1     3     3     0     0 -1.049131121E+01 -4.956089722E+00 -3.598625869E+01  3.781059707E+01  5.109989100E-04  0.00000E+00  9.000E+00
      21     1     1     2   501   511  1.108185063E+01 -1.046913569E+01 -2.403080374E+01  2.845856187E+01  4.768371582E-07  0.00000E+00  9.000E+00
#rwgt            1           4   167338.27982361882         54217137        4721           0
#pdf  -2  2 0.46332779E-03 0.16870158E-01 0.22366279E+02 0.14969769E+01 0.68594402E+00
</event>
<event>
      6  10011  2.10784E+03  1.00864E+01 -1.00000E+00  1.95319E-01
      -2    -1     0     0     0   511  0.000000000E+00  0.000000000E+00  3.454448142E+00  3.454448142E+00  0.000000000E+00  0.00000E+00  9.000E+00
       2    -1     0     0   501     0  0.000000000E+00  0.000000000E+00 -5.018494624E+02  5.018494624E+02  0.000000000E+00  0.00000E+00  9.000E+00
      23     2     1     2     0     0  9.675836692E+00 -2.848568947E+00 -4.551148858E+02  4.608639997E+02  7.186327807E+01  0.00000E+00  9.000E+00
      11     1     3     3     0     0  1.755338069E+01 -2.847988772E+01 -1.170437609E+02  1.217311265E+02  5.109989100E-04  0.00000E+00  9.000E+00
     -11     1     3     3     0     0 -7.877544001E+00  2.563131877E+01 -3.380711249E+02  3.391328732E+02  5.109989100E-04  0.00000E+00  9.000E+00
      21     1     1     2   501   511 -9.675836692E+00  2.848568947E+00 -4.328012841E+01  4.443991085E+01  0.000000000E+00  0.00000E+00  9.000E+00
#rwgt            1           4   288.43958754880839         54217137        4821           0
#pdf  -2  2 0.71166361E-03 0.11338597E+00 0.71863278E+02 0.16806709E+01 0.61882845E+00
</event>
<event>
      5  10011  2.10784E+03  1.00000E+01 -1.00000E+00  1.88369E-01
      -2    -1     0     0     0   501  0.000000000E+00  0.000000000E+00  5.096975754E+00  5.096975754E+00  0.000000000E+00  0.00000E+00  9.000E+00
       2    -1     0     0   501     0  0.000000000E+00  0.000000000E+00 -3.653719783E+02  3.653719783E+02  0.000000000E+00  0.00000E+00  9.000E+00
      23     2     1     2     0     0  0.000000000E+00  0.000000000E+00 -3.602750025E+02  3.704689540E+02  8.630856538E+01  0.00000E+00  9.000E+00
      11     1     3     3     0     0  1.466786824E+01  2.711771847E+01 -5.052652397E+01  5.918992008E+01  5.109989100E-04  0.00000E+00  9.000E+00
     -11     1     3     3     0     0 -1.466786824E+01 -2.711771847E+01 -3.097484786E+02  3.112790340E+02  5.109989100E-04  0.00000E+00  9.000E+00
#rwgt            1           4   2871.4462083754429         54217137        4882           0
#pdf  -2  2 0.12742439E-02 0.91342995E-01 0.86308565E+02 0.13862055E+01 0.63505660E+00
</event>
<event>
      5  10011  2.10784E+03  1.00000E+01 -1.00000E+00  1.93803E-01
       2    -1     0     0   501     0  0.000000000E+00  0.000000000E+00  3.068959741E+02  3.068959741E+02  0.000000000E+00  0.00000E+00  9.000E+00
      -2    -1     0     0     0   501  0.000000000E+00  0.000000000E+00 -6.443187036E+00  6.443187036E+00  0.000000000E+00  0.00000E+00  9.000E+00
      23     2     1     2     0     0  0.000000000E+00  0.000000000E+00  3.004527870E+02  3.133391611E+02  8.893566577E+01  0.00000E+00  9.000E+00
      11     1     3     3     0     0 -6.576875868E+00  8.513432484E+00  3.022420217E+02  3.024334200E+02  5.109989100E-04  0.00000E+00  9.000E+00
     -11     1     3     3     0     0  6.576875868E+00 -8.513432484E+00 -1.789234671E+00  1.090574114E+01  5.109989100E-04  0.00000E+00  9.000E+00
#rwgt            1           7   105.66780686617322         54217137        4943           0
#pdf   2 -2 0.76723994E-01 0.16107968E-02 0.88935666E+02 0.64705378E+00 0.12680827E+01
</event>
<event>
      5  10011  2.10784E+03  1.00000E+01 -1.00000E+00  1.92137E-01
      -3    -1     0     0     0   501  0.000000000E+00  0.000000000E+00  5.282663680E+01  5.282663680E+01  0.000000000E+00  0.00000E+00  9.000E+00
       3    -1     0     0   501     0  0.000000000E+00  0.000000000E+00 -3.881410145E+01  3.881410145E+01  0.000000000E+00  0.00000E+00  9.000E+00
      23     2     1     2     0     0  0.000000000E+00  0.000000000E+00  1.401253535E+01  9.164073825E+01  9.056309271E+01  0.00000E+00  9.000E+00
      11     1     3     3     0     0  8.154420053E+00 -4.409685965E+01  1.335716324E+01  4.679146725E+01  5.109989100E-04  0.00000E+00  9.000E+00
     -11     1     3     3     0     0 -8.154420053E+00  4.409685965E+01  6.553721181E-01  4.484927101E+01  5.109989100E-04  0.00000E+00  9.000E+00
#rwgt            1           3   152.63720433246968         54217137        5006           0
#pdf  -3  3 0.13206659E-01 0.97035254E-02 0.90563093E+02 0.40725030E+00 0.48915572E+00
</event>
<event>
      5  10011  2.10784E+03  1.00000E+01 -1.00000E+00  1.71955E-01
       3    -1     0     0   501     0  0.000000000E+00  0.000000000E+00  2.348877614E+01  2.348877614E+01  0.000000000E+00  0.00000E+00  9.000E+00
      -3    -1     0     0     0   501  0.000000000E+00  0.000000000E+00 -9.319460324E+01  9.319460324E+01  0.000000000E+00  0.00000E+00  9.000E+00
      23     2     1     2     0     0  0.000000000E+00  0.000000000E+00 -6.970582709E+01  1.166833794E+02  9.357408131E+01  0.00000E+00  9.000E+00
      11     1     3     3     0     0  1.013105262E+01  3.790167468E+01 -3.065099963E+00  3.935187427E+01  5.109989100E-04  0.00000E+00  9.000E+00
     -11     1     3     3     0     0 -1.013105262E+01 -3.790167468E+01 -6.664072713E+01  7.733150512E+01  5.109989100E-04  0.00000E+00  9.000E+00
#rwgt            1           8   143.92819601957780         54217137        5104           0
#pdf   3 -3 0.58721940E-02 0.23298651E-01 0.93574081E+02 0.64380736E+00 0.27860751E+00
</event>
<event>
      5  10011  2.10784E+03  1.00000E+01 -1.00000E+00  1.92423E-01
       2    -1     0     0   501     0  0.000000000E+00  0.000000000E+00  2.623672262E+02  2.623672262E+02  0.000000000E+00  0.00000E+00  9.000E+00
      -2    -1     0     0     0   501  0.000000000E+00  0.000000000E+00 -7.784655416E+00  7.784655416E+00  0.000000000E+00  0.00000E+00  9.000E+00
      23     2     1     2     0     0  0.000000000E+00  0.000000000E+00  2.545825707E+02  2.701518816E+02  9.038669035E+01  0.00000E+00  9.000E+00
      11     1     3     3     0     0 -3.012419944E+00  1.956785025E+01  5.866761233E+00  2.064931779E+01  5.109989100E-04  0.00000E+00  9.000E+00
     -11     1     3     3     0     0  3.012419944E+00 -1.956785025E+01  2.487158095E+02  2.495025638E+02  5.109989100E-04  0.00000E+00  9.000E+00
#rwgt            1           7   828.84526073485733         54217137        5190           0
#pdf   2 -2 0.65591807E-01 0.19461639E-02 0.90386690E+02 0.65607460E+00 0.11769180E+01
</event>
<event>
      5  10011  2.10784E+03  1.00000E+01 -1.00000E+00  1.84761E-01
       1    -1     0     0   501     0  0.000000000E+00  0.000000000E+00  8.377323928E+02  8.377323928E+02  0.000000000E+00  0.00000E+00  9.000E+00
      -1    -1     0     0     0   501  0.000000000E+00  0.000000000E+00 -2.503091201E+00  2.503091201E+00  0.000000000E+00  0.00000E+00  9.000E+00
      23     2     1     2     0     0  0.000000000E+00  0.000000000E+00  8.352293016E+02  8.402354840E+02  9.158429081E+01  0.00000E+00  9.000E+00
      11     1     3     3     0     0 -4.907966349E+00  2.607689575E+01  7.521858263E+01  7.976169381E+01  5.109989100E-04  0.00000E+00  9.000E+00
     -11     1     3     3     0     0  4.907966349E+00 -2.607689575E+01  7.600107190E+02  7.604737902E+02  5.109989100E-04  0.00000E+00  9.000E+00
#rwgt            1           6   1585.5031537225925         54217137        5252           0
#pdf   1 -1 0.20943310E+00 0.62577280E-03 0.91584291E+02 0.22283406E+00 0.18370326E+01
</event>
<event>
      6  10011  2.10784E+03  1.03303E+01 -1.00000E+00  1.94133E-01
       1    -1     0     0   501     0  0.000000000E+00  0.000000000E+00  6.020096196E+01  6.020096196E+01  0.000000000E+00  0.00000E+00  9.000E+00
      21    -1     0     0   511   501  0.000000000E+00  0.000000000E+00 -7.288670120E+01  7.288670120E+01  0.000000000E+00  0.00000E+00  9.000E+00
      23     2     1     2     0     0 -5.334176432E+00 -8.846529999E+00  2.336067670E+01  9.559021480E+01  9.211434969E+01  0.00000E+00  9.000E+00
      11     1     3     3     0     0 -8.500254972E+00  3.421547734E+01  3.621234399E+01  5.053995530E+01  5.109989100E-04  0.00000E+00  9.000E+00
     -11     1     3     3     0     0  3.166078540E+00 -4.306200734E+01 -1.285166729E+01  4.505025950E+01  5.109989100E-04  0.00000E+00  9.000E+00
       1     1     1     2   511     0  5.334176432E+00  8.846529999E+00 -3.604641594E+01  3.749744836E+01  0.000000000E+00  0.00000E+00  9.000E+00
#rwgt            1           6   1454.0512987761263         54217137        5303           0
#pdf   1 -1 0.14776233E-01 0.89724464E-02 0.92114350E+02 0.59187305E+00 0.57360617E+00
</event>
<event>
      5  10011  2.10784E+03  1.00000E+01 -1.00000E+00  1.93648E-01
       3    -1     0     0   501     0  0.000000000E+00  0.000000000E+00  2.154617178E+02  2.154617178E+02  0.000000000E+00  0.00000E+00  9.000E+00
      -3    -1     0     0     0   501  0.000000000E+00  0.000000000E+00 -2.170356151E+00  2.170356151E+00  0.000000000E+00  0.00000E+00  9.000E+00
      23     2     1     2     0     0  0.000000000E+00  0.000000000E+00  2.132913617E+02  2.176320740E+02  4.324944691E+01  0.00000E+00  9.000E+00
      11     1     3     3     0     0  3.607946994E+00  1.763491016E+01  4.634089085E+01  4.971403729E+01  5.109989100E-04  0.00000E+00  9.000E+00
     -11     1     3     3     0     0 -3.607946994E+00 -1.763491016E+01  1.669504708E+02  1.679180367E+02  5.109989100E-04  0.00000E+00  9.000E+00
#rwgt            1           8   79.596425062990662         54217137        5407           0
#pdf   3 -3 0.53865429E-01 0.54258904E-03 0.43249447E+02 0.13341525E+00 0.15552231E+01
</event>
<event>
      5  10011  2.10784E+03  1.00000E+01 -1.00000E+00  1.93283E-01
       2    -1     0     0   501     0  0.000000000E+00  0.000000000E+00  3.884154245E+02  3.884154245E+02  0.000000000E+00  0.00000E+00  9.000E+00
      -2    -1     0     0     0   501  0.000000000E+00  0.000000000E+00 -5.589148796E+00  5.589148796E+00  0.000000000E+00  0.00000E+00  9.000E+00
      23     2     1     2     0     0  0.000000000E+00  0.000000000E+00  3.828262757E+02  3.940045733E+02  9.318608484E+01  0.00000E+00  9.000E+00
      11     1     3     3     0     0  4.420624103E+01 -1.466776284E+01  1.861041777E+02  1.918439469E+02  5.109989100E-04  0.00000E+00  9.000E+00
     -11     1     3     3     0     0 -4.420624103E+01  1.466776284E+01  1.967220980E+02  2.021606264E+02  5.109989100E-04  0.00000E+00  9.000E+00
#rwgt            1           7   4065.3788450923289         54217137        5455           0
#pdf   2 -2 0.97103856E-01 0.13972872E-02 0.93186085E+02 0.62872302E+00 0.13517947E+01
</event>
<event>
      6  10011  2.10784E+03  1.28790E+01 -1.00000E+00  1.83851E-01
      -2    -1     0     0     0   511  0.000000000E+00  0.000000000E+00  8.786108814E-01  8.786108814E-01  0.000000000E+00  0.00000E+00  9.000E+00
       2    -1     0     0   501     0  0.000000000E+00  0.000000000E+00 -1.418564911E+03  1.418564911E+03  0.000000000E+00  0.00000E+00  9.000E+00
      23     2     1     2     0     0 -1.188392666E+01  4.963964659E+00 -1.323430533E+03  1.324311938E+03  4.656032890E+01  0.00000E+00  9.000E+00
      11     1     3     3     0     0 -1.706692350E+01  4.747729644E+00 -1.799971386E+02  1.808667761E+02  5.109989100E-04  0.00000E+00  9.000E+00
     -11     1     3     3     0     0  5.182996835E+00  2.162350153E-01 -1.143433394E+03  1.143445161E+03  5.109989100E-04  0.00000E+00  9.000E+00
      21     1     1     2   501   511  1.188392666E+01 -4.963964659E+00 -9.425576751E+01  9.513158449E+01  1.907348633E-06  0.00000E+00  9.000E+00
#rwgt            1           4   6992.2456262214728         54217137        5579           0
#pdf  -2  2 0.10618811E-03 0.31898938E+00 0.46560329E+02 0.29270037E+01 0.36890494E+00
</event>
<event>
      5  10011  2.10784E+03  1.00000E+01 -1.00000E+00  1.87228E-01
       2    -1     0     0   501     0  0.000000000E+00  0.000000000E+00  4.427130899E+02  4.427130899E+02  0.000000000E+00  0.00000E+00  9.000E+00
      -2    -1     0     0     0   501  0.000000000E+00  0.000000000E+00 -2.259514341E-01  2.259514341E-01  0.000000000E+00  0.00000E+00  9.000E+00
      23     2     1     2     0     0  0.000000000E+00  0.000000000E+00  4.424871385E+02  4.429390414E+02  2.000316551E+01  0.00000E+00  9.000E+00
      11     1     3     3     0     0  4.304509169E+00  4.453028792E+00  4.734574309E+01  4.774911155E+01  5.109989100E-04  0.00000E+00  9.000E+00
     -11     1     3     3     0     0 -4.304509169E+00 -4.453028792E+00  3.951413954E+02  3.951899298E+02  5.109989100E-04  0.00000E+00  9.000E+00
#rwgt            1           7   82406.774025601204         54217137        5634           0
#pdf   2 -2 0.11067827E+00 0.56487859E-04 0.20003166E+02 0.64860208E+00 0.26741790E+01
</event>
<event>
      5  10011  2.10784E+03  1.00000E+01 -1.00000E+00  1.94352E-01
       1    -1     0     0   501     0  0.000000000E+00  0.000000000E+00  3.410629150E+00  3.410629150E+00  0.000000000E+00  0.00000E+00  9.000E+00
      -1    -1     0     0     0   501  0.000000000E+00  0.000000000E+00 -4.669571573E+02  4.669571573E+02  0.000000000E+00  0.00000E+00  9.000E+00
      23     2     1     2     0     0  0.000000000E+00  0.000000000E+00 -4.635465282E+02  4.703677865E+02  7.981522893E+01  0.00000E+00  9.000E+00
      11     1     3     3     0     0  1.102057917E+01 -3.296740780E+01 -1.162431450E+02  1.213291882E+02  5.109989100E-04  0.00000E+00  9.000E+00
     -11     1     3     3     0     0 -1.102057917E+01  3.296740780E+01 -3.473033832E+02  3.490385984E+02  5.109989100E-04  0.00000E+00  9.000E+00
#rwgt            1           6   65.453968673037096         54217137        5734           0
#pdf   1 -1 0.85265729E-03 0.11673929E+00 0.79815229E+02 0.16230715E+01 0.65333318E-01
</event>
<event>
      6  10011  2.10784E+03  1.83967E+01 -1.00000E+00  1.69415E-01
       1    -1     0     0   501     0  0.000000000E+00  0.000000000E+00  2.300332592E+01  2.300332592E+01  0.000000000E+00  0.00000E+00  9.000E+00
      -1    -1     0     0     0   511  0.000000000E+00  0.000000000E+00 -1.478523452E+02  1.478523452E+02  0.000000000E+00  0.00000E+00  9.000E+00
      23     2     1     2     0     0 -1.581461710E+01  9.398839145E+00 -8.954159797E+01  1.310429308E+02  9.389415135E+01  0.00000E+00  9.000E+00
      11     1     3     3     0     0  2.792924915E+01 -1.868088218E+01 -8.326178183E+00  3.461709924E+01  5.109989100E-04  0.00000E+00  9.000E+00
     -11     1     3     3     0     0 -4.374386624E+01  2.807972132E+01 -8.121541979E+01  9.642583158E+01  5.109989100E-04  0.00000E+00  9.000E+00
      21     1     1     2   501   511  1.581461710E+01 -9.398839145E+00 -3.530742134E+01  3.981274033E+01  4.768371582E-07  0.00000E+00  9.000E+00
#rwgt            1           6   395.96630553114375         54217137        5807           0
#pdf   1 -1 0.50908705E-02 0.27058583E-01 0.93894151E+02 0.85348064E+00 0.29079300E+00
</event>
<event>
      5  10011  2.10784E+03  1.00000E+01 -1.00000E+00  1.95702E-01
      -3    -1     0     0     0   501  0.000000000E+00  0.000000000E+00  3.541363901E+00  3.541363901E+00  0.000000000E+00  0.00000E+00  9.000E+00
       3    -1     0     0   501     0  0.000000000E+00  0.000000000E+00 -5.726746284E+02  5.726746284E+02  0.000000000E+00  0.00000E+00  9.000E+00
      23     2     1     2     0     0  0.000000000E+00  0.000000000E+00 -5.691332645E+02  5.762159923E+02  9.006773575E+01  0.00000E+00  9.000E+00
      11     1     3     3     0     0 -3.789408390E+01  2.664052605E+00 -4.393023107E+02  4.409416957E+02  5.109989100E-04  0.00000E+00  9.000E+00
     -11     1     3     3     0     0  3.789408390E+01 -2.664052605E+00 -1.298309538E+02  1.352742966E+02  5.109989100E-04  0.00000E+00  9.000E+00
#rwgt            1           3   212.38285883957974         54217137        5882           0
#pdf  -3  3 0.88534098E-03 0.14316866E+00 0.90067736E+02 0.15006830E+01 0.35352469E-01
</event>
<event>
      5  10011  2.10784E+03  1.00000E+01 -1.00000E+00  1.94970E-01
      -2    -1     0     0     0   501  0.000000000E+00  0.000000000E+00  2.401472031E+02  2.401472031E+02  0.000000000E+00  0.00000E+00  9.000E+00
       2    -1     0     0   501     0  0.000000000E+00  0.000000000E+00 -8.041158198E+00  8.041158198E+00  0.000000000E+00  0.00000E+00  9.000E+00
      23     2     1     2     0     0  0.000000000E+00  0.000000000E+00  2.321060449E+02  2.481883613E+02  8.788769313E+01  0.00000E+00  9.000E+00
      11     1     3     3     0     0  7.647635806E-01 -2.013753848E+01  5.776757038E+00  2.096368864E+01  5.109989100E-04  0.00000E+00  9.000E+00
     -11     1     3     3     0     0 -7.647635806E-01  2.013753848E+01  2.263292879E+02  2.272246727E+02  5.109989100E-04  0.00000E+00  9.000E+00
#rwgt            1           4   119.16210666737442         54217137        5951           0
#pdf  -2  2 0.60036801E-01 0.20102895E-02 0.87887693E+02 0.18746570E+00 0.12612557E+01
</event>
<event>
      5  10011  2.10784E+03  1.00000E+01 -1.00000E+00  1.72112E-01
      -3    -1     0     0     0   501  0.000000000E+00  0.000000000E+00  3.904397369E+02  3.904397369E+02  0.000000000E+00  0.00000E+00  9.000E+00
       3    -1     0     0   501     0  0.000000000E+00  0.000000000E+00 -5.415032802E+00  5.415032802E+00  0.000000000E+00  0.00000E+00  9.000E+00
      23     2     1     2     0     0  0.000000000E+00  0.000000000E+00  3.850247041E+02  3.958547697E+02  9.196181778E+01  0.00000E+00  9.000E+00
      11     1     3     3     0     0  4.179085136E+01  1.904952694E+01  1.829991394E+02  1.886744412E+02  5.109989100E-04  0.00000E+00  9.000E+00
     -11     1     3     3     0     0 -4.179085136E+01 -1.904952694E+01  2.020255647E+02  2.071803285E+02  5.109989100E-04  0.00000E+00  9.000E+00
#rwgt            1           3   550.35070161589124         54217137        5996           0
#pdf  -3  3 0.97609934E-01 0.13537582E-02 0.91961818E+02 0.64801976E-01 0.12638084E+01
</event>
<event>
      5  10011  2.10784E+03  1.00000E+01 -1.00000E+00  1.85525E-01
       2    -1     0     0   501     0  0.000000000E+00  0.000000000E+00  1.512909733E+03  1.512909733E+03  0.000000000E+00  0.00000E+00  9.000E+00
      -2    -1     0     0     0   501  0.000000000E+00  0.000000000E+00 -1.542205022E+00  1.542205022E+00  0.000000000E+00  0.00000E+00  9.000E+00
      23     2     1     2     0     0  0.000000000E+00  0.000000000E+00  1.511367528E+03  1.514451938E+03  9.660676969E+01  0.00000E+00  9.000E+00
      11     1     3     3     0     0 -2.166888620E+01 -3.904008259E+01  1.044551290E+03  1.045505172E+03  5.109989100E-04  0.00000E+00  9.000E+00
     -11     1     3     3     0     0  2.166888620E+01  3.904008259E+01  4.668162383E+02  4.689467657E+02  5.109989100E-04  0.00000E+00  9.000E+00
#rwgt            1           7   4772.1469699768877         54217137        6115           0
#pdf   2 -2 0.37822743E+00 0.38555126E-03 0.96606770E+02 0.25346989E+00 0.22297064E+01
</event>
<event>
      5  10011  2.10784E+03  1.00000E+01 -1.00000E+00  1.80074E-01
       1    -1     0     0   501     0  0.000000000E+00  0.000000000E+00  3.264334548E+02  3.264334548E+02  0.000000000E+00  0.00000E+00  9.000E+00
      -1    -1     0     0     0   501  0.000000000E+00  0.000000000E+00 -7.129791047E+00  7.129791047E+00  0.000000000E+00  0.00000E+00  9.000E+00
      23     2     1     2     0     0  0.000000000E+00  0.000000000E+00  3.193036638E+02  3.335632459E+02  9.648631662E+01  0.00000E+00  9.000E+00
      11     1     3     3     0     0 -1.657058911E+01 -3.022316743E+01  4.295840649E+01  5.507675518E+01  5.109989100E-04  0.00000E+00  9.000E+00
     -11     1     3     3     0     0  1.657058911E+01  3.022316743E+01  2.763452573E+02  2.784864907E+02  5.109989100E-04  0.00000E+00  9.000E+00
#rwgt            1           6   1124.9945322957549         54217137        6212           0
#pdf   1 -1 0.81608364E-01 0.17824478E-02 0.96486317E+02 0.37692461E+00 0.12202283E+01
</event>
<event>
      5  10011 -2.10784E+03  1.00000E+01 -1.00000E+00  1.71266E-01
       4    -1     0     0   501     0  0.000000000E+00  0.000000000E+00  1.185966208E+02  1.185966208E+02  0.000000000E+00  0.00000E+00  9.000E+00
      -4    -1     0     0     0   501  0.000000000E+00  0.000000000E+00 -2.202636309E+00  2.202636309E+00  0.000000000E+00  0.00000E+00  9.000E+00
      23     2     1     2     0     0  0.000000000E+00  0.000000000E+00  1.163939845E+02  1.207992571E+02  3.232492680E+01  0.00000E+00  9.000E+00
      11     1     3     3     0     0  3.928870218E-01 -2.938977123E+00 -1.177514569E+00  3.190374204E+00  5.109989100E-04  0.00000E+00  9.000E+00
     -11     1     3     3     0     0 -3.928870218E-01  2.938977123E+00  1.175714991E+02  1.176088829E+02  5.109989100E-04  0.00000E+00  9.000E+00
#rwgt            1           9  -10242.725976283411         54217137        6352           0
#pdf   4 -4 0.29649155E-01 0.55065908E-03 0.32324927E+02 0.13152780E+00 0.11941825E+01
</event>
<event>
      6  10011  2.10784E+03  1.78961E+01 -1.00000E+00  1.70448E-01
      21    -1     0     0   511   501  0.000000000E+00  0.000000000E+00  4.293995293E+00  4.293995293E+00  0.000000000E+00  0.00000E+00  9.000E+00
       1    -1     0     0   501     0  0.000000000E+00  0.000000000E+00 -1.731757625E+03  1.731757625E+03  0.000000000E+00  0.00000E+00  9.000E+00
      23     2     1     2     0     0 -1.263231777E+01 -1.267648973E+01 -1.704544665E+03  1.706973316E+03  8.924750555E+01  0.00000E+00  9.000E+00
      11     1     3     3     0     0  3.094581568E+01 -5.964778620E+00 -2.837767761E+02  2.855214191E+02  5.109989100E-04  0.00000E+00  9.000E+00
     -11     1     3     3     0     0 -4.357813345E+01 -6.711711112E+00 -1.420767889E+03  1.421451897E+03  5.109989100E-04  0.00000E+00  9.000E+00
       1     1     1     2   511     0  1.263231777E+01  1.267648973E+01 -2.291896462E+01  2.907830434E+01  0.000000000E+00  0.00000E+00  9.000E+00
#rwgt            1           5   693.31776226168051         54217137        6379           0
#pdf  -1  1 0.29765612E-03 0.41811658E+00 0.89247506E+02 0.24090334E+01 0.61678782E-01
</event>
<event>
      6  10011  2.10784E+03  3.69288E+01 -1.00000E+00  1.47021E-01
      21    -1     0     0   511   501  0.000000000E+00  0.000000000E+00  2.614450738E+01  2.614450738E+01  0.000000000E+00  0.00000E+00  9.000E+00
       4    -1     0     0   501     0  0.000000000E+00  0.000000000E+00 -1.867026818E+02  1.867026818E+02  0.000000000E+00  0.00000E+00  9.000E+00
      23     2     1     2     0     0 -9.926390196E-01  3.691545330E+01 -8.877512035E+01  1.321220823E+02  9.061725344E+01  0.00000E+00  9.000E+00
      11     1     3     3     0     0  3.210637778E+01  1.139924194E+01 -7.573972902E-02  3.407004473E+01  5.109989100E-04  0.00000E+00  9.000E+00
     -11     1     3     3     0     0 -3.309901680E+01  2.551621136E+01 -8.869938062E+01  9.805203760E+01  5.109989100E-04  0.00000E+00  9.000E+00
       4     1     1     2   511     0  9.926390196E-01 -3.691545330E+01 -7.178305409E+01  8.072510687E+01  0.000000000E+00  0.00000E+00  9.000E+00
#rwgt            1           2   102.31134914779815         54217137        6531           0
#pdf  -4  4 0.50177051E-02 0.25570351E-01 0.90617253E+02 0.54242915E+00 0.16865857E+00
</event>
<event>
      5  10011  2.10784E+03  1.00000E+01 -1.00000E+00  1.93924E-01
      -2    -1     0     0     0   501  0.000000000E+00  0.000000000E+00  8.566946437E+00  8.566946437E+00  0.000000000E+00  0.00000E+00  9.000E+00
       2    -1     0     0   501     0  0.000000000E+00  0.000000000E+00 -1.531897161E+01  1.531897161E+01  0.000000000E+00  0.00000E+00  9.000E+00
      23     2     1     2     0     0  0.000000000E+00  0.000000000E+00 -6.752025169E+00  2.388591804E+01  2.291172706E+01  0.00000E+00  9.000E+00
      11     1     3     3     0     0 -2.393087671E+00  7.776193616E+00  5.031681312E+00  9.566288353E+00  5.109989100E-04  0.00000E+00  9.000E+00
     -11     1     3     3     0     0  2.393087671E+00 -7.776193616E+00 -1.178370648E+01  1.431962969E+01  5.109989100E-04  0.00000E+00  9.000E+00
#rwgt            1           4   53696.372548524487         54217137        6696           0
#pdf  -2  2 0.21417366E-02 0.38297429E-02 0.22911727E+02 0.90547860E+00 0.86641362E+00
</event>
<event>
      6  10011  2.10784E+03  2.88161E+01 -1.00000E+00  1.54260E-01
       2    -1     0     0   501     0  0.000000000E+00  0.000000000E+00  1.222249177E+02  1.222249177E+02  0.000000000E+00  0.00000E+00  9.000E+00
      21    -1     0     0   511   501  0.000000000E+00  0.000000000E+00 -1.209059696E+01  1.209059696E+01  0.000000000E+00  0.00000E+00  9.000E+00
      23     2     1     2     0     0 -1.214379610E+00 -2.879045141E+01  8.639448567E+01  9.697994744E+01  3.332773980E+01  0.00000E+00  9.000E+00
      11     1     3     3     0     0 -3.172174060E+00 -1.820279346E+00 -2.255876553E+00  4.297101866E+00  5.109989100E-04  0.00000E+00  9.000E+00
     -11     1     3     3     0     0  1.957794450E+00 -2.697017206E+01  8.865036223E+01  9.268284557E+01  5.109989100E-04  0.00000E+00  9.000E+00
       2     1     1     2   511     0  1.214379610E+00  2.879045141E+01  2.373983505E+01  3.733556720E+01  0.000000000E+00  0.00000E+00  9.000E+00
#rwgt            1           7   2538.6713900438090         54217137        6820           0
#pdf   2 -2 0.17339252E-01 0.10009247E-02 0.33327740E+02 0.70229000E+00 0.12773532E+01
</event>
<event>
      6  10011  2.10784E+03  1.37412E+01 -1.00000E+00  1.81041E-01
       2    -1     0     0   501     0  0.000000000E+00  0.000000000E+00  2.423336390E+03  2.423336390E+03  0.000000000E+00  0.00000E+00  9.000E+00
      21    -1     0     0   511   501  0.000000000E+00  0.000000000E+00 -2.095493980E+00  2.095493980E+00  0.000000000E+00  0.00000E+00  9.000E+00
      23     2     1     2     0     0 -1.335110593E+00  1.367614743E+01  2.296953013E+03  2.300386703E+03  1.248880213E+02  0.00000E+00  9.000E+00
      11     1     3     3     0     0  5.640398681E+01 -1.195273798E-01  1.570355439E+03  1.571368075E+03  5.109989100E-04  0.00000E+00  9.000E+00
     -11     1     3     3     0     0 -5.773909740E+01  1.379567481E+01  7.265975745E+02  7.290186275E+02  5.109989100E-04  0.00000E+00  9.000E+00
       2     1     1     2   511     0  1.335110593E+00 -1.367614743E+01  1.242878822E+02  1.250451806E+02  0.000000000E+00  0.00000E+00  9.000E+00
#rwgt            1           7   826.65144320668298         54217137        6849           0
#pdf   2 -2 0.57122023E+00 0.42663651E-03 0.12488802E+03 0.55261612E-01 0.22504844E+01
</event>
<event>
      5  10011  2.10784E+03  1.00000E+01 -1.00000E+00  1.80520E-01
      -3    -1     0     0     0   501  0.000000000E+00  0.000000000E+00  1.747031658E+01  1.747031658E+01  0.000000000E+00  0.00000E+00  9.000E+00
       3    -1     0     0   501     0  0.000000000E+00  0.000000000E+00 -1.186690080E+02  1.186690080E+02  0.000000000E+00  0.00000E+00  9.000E+00
      23     2     1     2     0     0  0.000000000E+00  0.000000000E+00 -1.011986915E+02  1.361393246E+02  9.106448570E+01  0.00000E+00  9.000E+00
      11     1     3     3     0     0  4.328478628E+01  1.051430842E+01 -6.470782245E+01  7.855714921E+01  5.109989100E-04  0.00000E+00  9.000E+00
     -11     1     3     3     0     0 -4.328478628E+01 -1.051430842E+01 -3.649086900E+01  5.758217542E+01  5.109989100E-04  0.00000E+00  9.000E+00
#rwgt            1           3   141.40501578121317         54217137        7042           0
#pdf  -3  3 0.43675791E-02 0.29667252E-01 0.91064486E+02 0.74420401E+00 0.23101765E+00
</event>
<event>
      6  10011  2.10784E+03  1.06053E+01 -1.00000E+00  1.92845E-01
       2    -1     0     0   501     0  0.000000000E+00  0.000000000E+00  2.286985004E+02  2.286985004E+02  0.000000000E+00  0.00000E+00  9.000E+00
      21    -1     0     0   511   501  0.000000000E+00  0.000000000E+00 -1.358780755E+01  1.358780755E+01  0.000000000E+00  0.00000E+00  9.000E+00
      23     2     1     2     0     0  9.952342287E+00  3.663848853E+00  2.151861465E+02  2.316807151E+02  8.519626298E+01  0.00000E+00  9.000E+00
      11     1     3     3     0     0 -3.440206890E+01  1.278991132E+01  1.315288674E+02  1.365537518E+02  5.109989100E-04  0.00000E+00  9.000E+00
     -11     1     3     3     0     0  4.435441119E+01 -9.126062463E+00  8.365727908E+01  9.512696333E+01  5.109989100E-04  0.00000E+00  9.000E+00
       2     1     1     2   511     0 -9.952342287E+00 -3.663848853E+00 -7.545364418E-02  1.060559280E+01  0.000000000E+00  0.00000E+00  9.000E+00
#rwgt            1           7   532.32382305113492         54217137        7099           0
#pdf   2 -2 0.55430545E-01 0.20460298E-02 0.85196263E+02 0.66475749E+00 0.11438061E+01
</event>
<event>
      6  10011  2.10784E+03  2.66637E+01 -1.00000E+00  1.56679E-01
      -1    -1     0     0     0   501  0.000000000E+00  0.000000000E+00  8.875736602E+00  8.875736602E+00  0.000000000E+00  0.00000E+00  9.000E+00
       1    -1     0     0   511     0  0.000000000E+00  0.000000000E+00 -6.248767520E+02  6.248767520E+02  0.000000000E+00  0.00000E+00  9.000E+00
      23     2     1     2     0     0 -1.898293058E+01  1.872430648E+01 -3.234854526E+02  3.400242029E+02  1.013048333E+02  0.00000E+00  9.000E+00
      11     1     3     3     0     0  4.098403578E+01  1.115687581E+00 -1.032458154E+02  1.110884078E+02  5.109989100E-04  0.00000E+00  9.000E+00
     -11     1     3     3     0     0 -5.996696637E+01  1.760861890E+01 -2.202396372E+02  2.289357952E+02  5.109989100E-04  0.00000E+00  9.000E+00
      21     1     1     2   511   501  1.898293058E+01 -1.872430648E+01 -2.925155628E+02  2.937282857E+02  3.814697266E-06  0.00000E+00  9.000E+00
#rwgt            1           5   261.91035166828300         54217137        7152           0
#pdf  -1  1 0.19992537E-02 0.80207034E-01 0.10130483E+03 0.11702081E+01 0.37839005E+00
</event>
<event>
      5  10011  2.10784E+03  1.00000E+01 -1.00000E+00  1.90120E-01
      -2    -1     0     0     0   501  0.000000000E+00  0.000000000E+00  8.393037322E+00  8.393037322E+00  0.000000000E+00  0.00000E+00  9.000E+00
       2    -1     0     0   501     0  0.000000000E+00  0.000000000E+00 -1.263738978E+01  1.263738978E+01  0.000000000E+00  0.00000E+00  9.000E+00
      23     2     1     2     0     0  0.000000000E+00  0.000000000E+00 -4.244352459E+00  2.103042710E+01  2.059767793E+01  0.00000E+00  9.000E+00
      11     1     3     3     0     0  5.884441465E+00 -8.432218147E+00 -1.529348848E+00  1.039556936E+01  5.109989100E-04  0.00000E+00  9.000E+00
     -11     1     3     3     0     0 -5.884441465E+00  8.432218147E+00 -2.715003611E+00  1.063485774E+01  5.109989100E-04  0.00000E+00  9.000E+00
#rwgt            1           4   151288.35154093037         54217137        7228           0
#pdf  -2  2 0.20982593E-02 0.31593474E-02 0.20597678E+02 0.89240939E+00 0.89003501E+00
</event>
<event>
      5  10011  2.10784E+03  1.00000E+01 -1.00000E+00  1.89109E-01
       1    -1     0     0   501     0  0.000000000E+00  0.000000000E+00  2.961403058E+01  2.961403058E+01  0.000000000E+00  0.00000E+00  9.000E+00
      -1    -1     0     0     0   501  0.000000000E+00  0.000000000E+00 -4.430875172E+01  4.430875172E+01  0.000000000E+00  0.00000E+00  9.000E+00
      23     2     1     2     0     0  0.000000000E+00  0.000000000E+00 -1.469472114E+01  7.392278229E+01  7.244751833E+01  0.00000E+00  9.000E+00
      11     1     3     3     0     0 -2.280574006E+01 -2.057684948E+01  1.224393759E+01  3.306694002E+01  5.109989100E-04  0.00000E+00  9.000E+00
     -11     1     3     3     0     0  2.280574006E+01  2.057684948E+01 -2.693865873E+01  4.085584228E+01  5.109989100E-04  0.00000E+00  9.000E+00
#rwgt            1           6   30.941147963992496         54217137        7286           0
#pdf   1 -1 0.74035076E-02 0.11077188E-01 0.72447518E+02 0.73030658E+00 0.50256807E+00
</event>
<event>
      5  10011  2.10784E+03  1.00000E+01 -1.00000E+00  1.94650E-01
      -2    -1     0     0     0   501  0.000000000E+00  0.000000000E+00  2.912843776E+01  2.912843776E+01  0.000000000E+00  0.00000E+00  9.000E+00
       2    -1     0     0   501     0  0.000000000E+00  0.000000000E+00 -1.673538422E+01  1.673538422E+01  0.000000000E+00  0.00000E+00  9.000E+00
      23     2     1     2     0     0  0.000000000E+00  0.000000000E+00  1.239305354E+01  4.586382199E+01  4.415769912E+01  0.00000E+00  9.000E+00
      11     1     3     3     0     0 -7.238209526E+00  1.721549530E+01  1.842912461E+01  2.623733199E+01  5.109989100E-04  0.00000E+00  9.000E+00
     -11     1     3     3     0     0  7.238209526E+00 -1.721549530E+01 -6.036071071E+00  1.962649000E+01  5.109989100E-04  0.00000E+00  9.000E+00
#rwgt            1           4   596.52285234133080         54217137        7364           0
#pdf  -2  2 0.72821094E-02 0.41838461E-02 0.44157699E+02 0.61895988E+00 0.92962668E+00
</event>
<event>
      5  10011  2.10784E+03  1.00000E+01 -1.00000E+00  1.93252E-01
      -1    -1     0     0     0   501  0.000000000E+00  0.000000000E+00  2.837855216E+00  2.837855216E+00  0.000000000E+00  0.00000E+00  9.000E+00
       1    -1     0     0   501     0  0.000000000E+00  0.000000000E+00 -7.557939231E+02  7.557939231E+02  0.000000000E+00  0.00000E+00  9.000E+00
      23     2     1     2     0     0  0.000000000E+00  0.000000000E+00 -7.529560679E+02  7.586317783E+02  9.262469923E+01  0.00000E+00  9.000E+00
      11     1     3     3     0     0 -2.485960336E+01 -3.414826050E+01 -2.209189264E+02  2.249205985E+02  5.109989100E-04  0.00000E+00  9.000E+00
     -11     1     3     3     0     0  2.485960336E+01  3.414826050E+01 -5.320371415E+02  5.337111799E+02  5.109989100E-04  0.00000E+00  9.000E+00
#rwgt            1           5   405.75743690720208         54217137        7418           0
#pdf  -1  1 0.70946380E-03 0.18894848E+00 0.92624699E+02 0.17541871E+01 0.24518687E+00
</event>
<event>
      6  10011  2.10784E+03  2.65468E+01 -1.00000E+00  1.56818E-01
      21    -1     0     0   511   501  0.000000000E+00  0.000000000E+00  2.047539489E+00  2.047539489E+00  0.000000000E+00  0.00000E+00  9.000E+00
       2    -1     0     0   501     0  0.000000000E+00  0.000000000E+00 -1.772171183E+03  1.772171183E+03  0.000000000E+00  0.00000E+00  9.000E+00
      23     2     1     2     0     0  7.918358299E+00  2.533830766E+01 -1.392347904E+03  1.395511395E+03  9.008128919E+01  0.00000E+00  9.000E+00
      11     1     3     3     0     0 -1.836676905E+01 -2.738438677E+01 -3.694803831E+02  3.709487786E+02  5.109989100E-04  0.00000E+00  9.000E+00
     -11     1     3     3     0     0  2.628512735E+01  5.272269443E+01 -1.022867521E+03  1.024562616E+03  5.109989100E-04  0.00000E+00  9.000E+00
       2     1     1     2   511     0 -7.918358299E+00 -2.533830766E+01 -3.777757397E+02  3.787073273E+02  0.000000000E+00  0.00000E+00  9.000E+00
#rwgt            1           4   819.78029830527441         54217137        7526           0
#pdf  -2  2 0.37930844E-03 0.33426946E+00 0.90081289E+02 0.22130374E+01 0.31884182E+00
</event>
<event>
      5  10011  2.10784E+03  1.00000E+01 -1.00000E+00  1.87488E-01
       1    -1     0     0   501     0  0.000000000E+00  0.000000000E+00  7.780626123E+00  7.780626123E+00  0.000000000E+00  0.00000E+00  9.000E+00
      -1    -1     0     0     0   501  0.000000000E+00  0.000000000E+00 -5.177598950E+01  5.177598950E+01  0.000000000E+00  0.00000E+00  9.000E+00
      23     2     1     2     0     0  0.000000000E+00  0.000000000E+00 -4.399536337E+01  5.955661562E+01  4.014222796E+01  0.00000E+00  9.000E+00
      11     1     3     3     0     0 -1.627817862E+01  1.149920660E+01 -2.552074557E+01  3.238084783E+01  5.109989100E-04  0.00000E+00  9.000E+00
     -11     1     3     3     0     0  1.627817862E+01 -1.149920660E+01 -1.847461780E+01  2.717576779E+01  5.109989100E-04  0.00000E+00  9.000E+00
#rwgt            1           6   421.37462906596119         54217137        7585           0
#pdf   1 -1 0.19451565E-02 0.12943997E-01 0.40142228E+02 0.10767120E+01 0.44194239E+00
</event>
<event>
      5  10011  2.10784E+03  1.00000E+01 -1.00000E+00  1.93520E-01
       2    -1     0     0   501     0  0.000000000E+00  0.000000000E+00  2.090547586E+02  2.090547586E+02  0.000000000E+00  0.00000E+00  9.000E+00
      -2    -1     0     0     0   501  0.000000000E+00  0.000000000E+00 -1.011527550E+01  1.011527550E+01  0.000000000E+00  0.00000E+00  9.000E+00
      23     2     1     2     0     0  0.000000000E+00  0.000000000E+00  1.989394831E+02  2.191700341E+02  9.197057089E+01  0.00000E+00  9.000E+00
      11     1     3     3     0     0 -1.267981255E+00  2.035971117E+01  1.976824608E+02  1.987321839E+02  5.109989100E-04  0.00000E+00  9.000E+00
     -11     1     3     3     0     0  1.267981255E+00 -2.035971117E+01  1.257022320E+00  2.043785020E+01  5.109989100E-04  0.00000E+00  9.000E+00
#rwgt            1           7   1356.2035962048235         54217137        7967           0
#pdf   2 -2 0.52263690E-01 0.25288189E-02 0.91970571E+02 0.66735552E+00 0.10582003E+01
</event>
<event>
      6  10011  2.10784E+03  1.28921E+01 -1.00000E+00  1.83806E-01
       1    -1     0     0   511     0  0.000000000E+00  0.000000000E+00  1.610304652E+03  1.610304652E+03  0.000000000E+00  0.00000E+00  9.000E+00
      -1    -1     0     0     0   501  0.000000000E+00  0.000000000E+00 -1.675183362E+00  1.675183362E+00  0.000000000E+00  0.00000E+00  9.000E+00
      23     2     1     2     0     0  1.288996684E+01  2.363011661E-01  1.396456431E+03  1.399415481E+03  9.003841471E+01  0.00000E+00  9.000E+00
      11     1     3     3     0     0  2.981242988E+01  3.731010395E+01  9.112312262E+02  9.124818751E+02  5.109989100E-04  0.00000E+00  9.000E+00
     -11     1     3     3     0     0 -1.692246304E+01 -3.707380279E+01  4.852252051E+02  4.869336056E+02  5.109989100E-04  0.00000E+00  9.000E+00
      21     1     1     2   511   501 -1.288996684E+01 -2.363011661E-01  2.121730372E+02  2.125643545E+02  2.697398305E-06  0.00000E+00  9.000E+00
#rwgt            1           6   48.261516109557931         54217137        8034           0
#pdf   1 -1 0.34595561E+00 0.36614687E-03 0.90038415E+02 0.10278203E+00 0.22377616E+01
</event>
<event>
      5  10011  2.10784E+03  1.00000E+01 -1.00000E+00  1.94334E-01
       2    -1     0     0   501     0  0.000000000E+00  0.000000000E+00  2.858881897E+01  2.858881897E+01  0.000000000E+00  0.00000E+00  9.000E+00
      -2    -1     0     0     0   501  0.000000000E+00  0.000000000E+00 -7.160078140E+00  7.160078140E+00  0.000000000E+00  0.00000E+00  9.000E+00
      23     2     1     2     0     0  0.000000000E+00  0.000000000E+00  2.142874083E+01  3.574889711E+01  2.861455418E+01  0.00000E+00  9.000E+00
      11     1     3     3     0     0 -1.107132029E+01  6.491249909E+00  2.814154148E+00  1.313887066E+01  5.109989100E-04  0.00000E+00  9.000E+00
     -11     1     3     3     0     0  1.107132029E+01 -6.491249909E+00  1.861458668E+01  2.261002645E+01  5.109989100E-04  0.00000E+00  9.000E+00
#rwgt            1           7   27764.387385500955         54217137        8121           0
#pdf   2 -2 0.71472047E-02 0.17900195E-02 0.28614554E+02 0.78413908E+00 0.10082208E+01
</event>
<event>
      5  10011  2.10784E+03  1.00000E+01 -1.00000E+00  1.94318E-01
      -2    -1     0     0     0   501  0.000000000E+00  0.000000000E+00  7.316689140E-01  7.316689140E-01  0.000000000E+00  0.00000E+00  9.000E+00
       2    -1     0     0   501     0  0.000000000E+00  0.000000000E+00 -1.855637793E+02  1.855637793E+02  0.000000000E+00  0.00000E+00  9.000E+00
      23     2     1     2     0     0  0.000000000E+00  0.000000000E+00 -1.848321104E+02  1.862954482E+02  2.330418408E+01  0.00000E+00  9.000E+00
      11     1     3     3     0     0  7.248975546E+00  5.086883448E+00 -3.187854955E+01  3.308573638E+01  5.109989100E-04  0.00000E+00  9.000E+00
     -11     1     3     3     0     0 -7.248975546E+00 -5.086883448E+00 -1.529535608E+02  1.532097118E+02  5.109989100E-04  0.00000E+00  9.000E+00
#rwgt            1           4   177387.65404183525         54217137        8142           0
#pdf  -2  2 0.18291723E-03 0.46390945E-01 0.23304184E+02 0.20148116E+01 0.66630040E+00
</event>
<event>
      6  10011  2.10784E+03  2.34780E+01 -1.00000E+00  1.60817E-01
      21    -1     0     0   511   501  0.000000000E+00  0.000000000E+00  5.140617216E+00  5.140617216E+00  0.000000000E+00  0.00000E+00  9.000E+00
       4    -1     0     0   501     0  0.000000000E+00  0.000000000E+00 -2.236267661E+02  2.236267661E+02  0.000000000E+00  0.00000E+00  9.000E+00
      23     2     1     2     0     0  5.302005337E+00 -2.287150397E+01 -1.768982731E+02  1.810099927E+02  3.033811870E+01  0.00000E+00  9.000E+00
      11     1     3     3     0     0 -9.306915831E+00  1.712994182E+00 -5.448388693E+01  5.529961091E+01  5.109989100E-04  0.00000E+00  9.000E+00
     -11     1     3     3     0     0  1.460892117E+01 -2.458449815E+01 -1.224143862E+02  1.257103817E+02  5.109989100E-04  0.00000E+00  9.000E+00
       4     1     1     2   511     0 -5.302005337E+00  2.287150397E+01 -4.158787579E+01  4.775739071E+01  0.000000000E+00  0.00000E+00  9.000E+00
#rwgt            1           2   1915.2208331155196         54217137        8184           0
#pdf  -4  4 0.40646629E-03 0.35381218E-01 0.30338119E+02 0.13115985E+01 0.10948719E+00
</event>
<event>
      6  10011  2.10784E+03  1.02563E+02 -1.00000E+00  1.23333E-01
       5    -1     0     0   501     0  0.000000000E+00  0.000000000E+00  2.418612055E+02  2.418612055E+02  0.000000000E+00  0.00000E+00  9.000E+00
      21    -1     0     0   511   501  0.000000000E+00  0.000000000E+00 -5.994721871E+01  5.994721871E+01  0.000000000E+00  0.00000E+00  9.000E+00
      23     2     1     2     0     0 -3.519558909E+00  1.025028646E+02  8.857290918E+01  1.631297261E+02  9.081256923E+01  0.00000E+00  9.000E+00
      11     1     3     3     0     0  4.164442593E+01  5.144217583E+01  5.957708806E+01  8.905046371E+01  5.109989100E-04  0.00000E+00  9.000E+00
     -11     1     3     3     0     0 -4.516398484E+01  5.106068882E+01  2.899582112E+01  7.407926236E+01  5.109989100E-04  0.00000E+00  9.000E+00
       5     1     1     2   511     0  3.519558909E+00 -1.025028646E+02  9.334107763E+01  1.386786982E+02  0.000000000E+00  0.00000E+00  9.000E+00
#rwgt            1          10   80.747762046910765         54217137        8252           0
#pdf   5 -5 0.20857208E-01 0.61781119E-02 0.90812569E+02 0.12849911E+00 0.32879246E+00
</event>
<event>
      6  10011  2.10784E+03  1.76177E+01 -1.00000E+00  1.71040E-01
      -1    -1     0     0     0   501  0.000000000E+00  0.000000000E+00  1.178666005E+02  1.178666005E+02  0.000000000E+00  0.00000E+00  9.000E+00
      21    -1     0     0   501   511  0.000000000E+00  0.000000000E+00 -1.126223082E+02  1.126223082E+02  0.000000000E+00  0.00000E+00  9.000E+00
      23     2     1     2     0     0 -4.555351629E+00 -1.701862200E+01  9.338594102E+01  1.406037879E+02  1.036248352E+02  0.00000E+00  9.000E+00
      11     1     3     3     0     0  1.553519559E+01  9.966281501E+00 -1.706840734E+01  2.513960219E+01  5.109989100E-04  0.00000E+00  9.000E+00
     -11     1     3     3     0     0 -2.009054722E+01 -2.698490350E+01  1.104543484E+02  1.154641857E+02  5.109989100E-04  0.00000E+00  9.000E+00
      -1     1     1     2     0   511  4.555351629E+00  1.701862200E+01 -8.814164871E+01  8.988512090E+01  0.000000000E+00  0.00000E+00  9.000E+00
#rwgt            1           5   293.56888662438382         54217137        8347           0
#pdf  -1  1 0.28834948E-01 0.58187347E-02 0.10362484E+03 0.27800436E+00 0.82012281E+00
</event>
<event>
      6  10011  2.10784E+03  1.09996E+01 -1.00000E+00  1.91086E-01
       1    -1     0     0   501     0  0.000000000E+00  0.000000000E+00  6.233814007E+01  6.233814007E+01  0.000000000E+00  0.00000E+00  9.000E+00
      21    -1     0     0   511   501  0.000000000E+00  0.000000000E+00 -6.342409028E+01  6.342409028E+01  0.000000000E+00  0.00000E+00  9.000E+00
      23     2     1     2     0     0  1.099790375E+01  1.950636636E-01  1.703883927E+01  1.045608170E+02  1.025750967E+02  0.00000E+00  9.000E+00
      11     1     3     3     0     0  4.410931023E+01 -2.260079911E+01  3.485374148E+01  6.059051630E+01  5.109989100E-04  0.00000E+00  9.000E+00
     -11     1     3     3     0     0 -3.311140649E+01  2.279586277E+01 -1.781490221E+01  4.397030066E+01  5.109989100E-04  0.00000E+00  9.000E+00
       1     1     1     2   511     0 -1.099790375E+01 -1.950636636E-01 -1.812478948E+01  2.120141340E+01  0.000000000E+00  0.00000E+00  9.000E+00
#rwgt            1           6   1420.5030386698636         54217137        8406           0
#pdf   1 -1 0.15113309E-01 0.10877882E-01 0.10257510E+03 0.59081559E+00 0.51959930E+00
</event>
<event>
      6  10011  2.10784E+03  1.77226E+01 -1.00000E+00  1.70815E-01
       2    -1     0     0   501     0  0.000000000E+00  0.000000000E+00  7.809319517E+02  7.809319517E+02  0.000000000E+00  0.00000E+00  9.000E+00
      21    -1     0     0   511   501  0.000000000E+00  0.000000000E+00 -2.422393611E+00  2.422393611E+00  0.000000000E+00  0.00000E+00  9.000E+00
      23     2     1     2     0     0 -4.564078590E+00 -1.712480447E+01  7.443914846E+02  7.449078542E+02  2.132930218E+01  0.00000E+00  9.000E+00
      11     1     3     3     0     0 -1.211715800E+01 -7.914904633E+00  2.907227134E+02  2.910827500E+02  5.109989100E-04  0.00000E+00  9.000E+00
     -11     1     3     3     0     0  7.553079412E+00 -9.209899840E+00  4.536687712E+02  4.538251042E+02  5.109989100E-04  0.00000E+00  9.000E+00
       2     1     1     2   511     0  4.564078590E+00  1.712480447E+01  3.411807347E+01  3.844649111E+01  0.000000000E+00  0.00000E+00  9.000E+00
#rwgt            1           7   94506.045997528927         54217137        8631           0
#pdf   2 -2 0.14318494E+00 0.49645054E-04 0.21329302E+02 0.62529224E+00 0.28396130E+01
</event>
<event>
      6  10011  2.10784E+03  1.53424E+01 -1.00000E+00  1.76459E-01
      -1    -1     0     0     0   511  0.000000000E+00  0.000000000E+00  1.105524744E+01  1.105524744E+01  0.000000000E+00  0.00000E+00  9.000E+00
       1    -1     0     0   501     0  0.000000000E+00  0.000000000E+00 -3.450241602E+02  3.450241602E+02  0.000000000E+00  0.00000E+00  9.000E+00
      23     2     1     2     0     0  1.505108194E+01  2.975666427E+00 -3.254794144E+02  3.385448349E+02  9.187146672E+01  0.00000E+00  9.000E+00
      11     1     3     3     0     0  1.023056622E+01 -4.256811956E+01 -2.057229885E+02  2.103298773E+02  5.109989100E-04  0.00000E+00  9.000E+00
     -11     1     3     3     0     0  4.820515720E+00  4.554378599E+01 -1.197564259E+02  1.282149576E+02  5.109989100E-04  0.00000E+00  9.000E+00
      21     1     1     2   501   511 -1.505108194E+01 -2.975666427E+00 -8.489498376E+00  1.753457273E+01  2.920019320E-07  0.00000E+00  9.000E+00
#rwgt            1           5   505.29288335999416         54217137        8734           0
#pdf  -1  1 0.16108696E-02 0.81869273E-01 0.91871467E+02 0.12639130E+01 0.37709293E+00
</event>
<event>
      6  10011  2.10784E+03  1.45731E+01 -1.00000E+00  1.78567E-01
      21    -1     0     0   501   511  0.000000000E+00  0.000000000E+00  2.980174789E+01  2.980174789E+01  0.000000000E+00  0.00000E+00  9.000E+00
      -2    -1     0     0     0   501  0.000000000E+00  0.000000000E+00 -1.922367050E+01  1.922367050E+01  0.000000000E+00  0.00000E+00  9.000E+00
      23     2     1     2     0     0 -4.211918049E+00  1.395121475E+01  1.564145637E+01  3.359770135E+01  2.591859819E+01  0.00000E+00  9.000E+00
      11     1     3     3     0     0  3.927894108E+00 -6.438880425E+00  2.206869949E+00  7.858613648E+00  5.109989100E-04  0.00000E+00  9.000E+00
     -11     1     3     3     0     0 -8.139812156E+00  2.039009517E+01  1.343458642E+01  2.573908770E+01  5.109989100E-04  0.00000E+00  9.000E+00
      -2     1     1     2     0   511  4.211918049E+00 -1.395121475E+01 -5.063378981E+00  1.542771705E+01  0.000000000E+00  0.00000E+00  9.000E+00
#rwgt            1           7   3067.6923139330206         54217137        8935           0
#pdf   2 -2 0.53649919E-02 0.19564735E-02 0.25918598E+02 0.81951148E+00 0.95804460E+00
</event>
<event>
      6  10011  2.10784E+03  1.24569E+01 -1.00000E+00  1.85331E-01
      21    -1     0     0   511   501  0.000000000E+00  0.000000000E+00  7.846602584E-01  7.846602584E-01  0.000000000E+00  0.00000E+00  9.000E+00
       2    -1     0     0   501     0  0.000000000E+00  0.000000000E+00 -1.139090935E+03  1.139090935E+03  0.000000000E+00  0.00000E+00  9.000E+00
      23     2     1     2     0     0 -1.053180585E+01  6.652485812E+00 -9.212536942E+02  9.224658503E+02  4.560374229E+01  0.00000E+00  9.000E+00
      11     1     3     3     0     0  8.930158725E+00  1.474810015E+01 -1.610973424E+02  1.620173075E+02  5.109989100E-04  0.00000E+00  9.000E+00
     -11     1     3     3     0     0 -1.946196458E+01 -8.095614341E+00 -7.601563518E+02  7.604485428E+02  5.109989100E-04  0.00000E+00  9.000E+00
       2     1     1     2   511     0  1.053180585E+01 -6.652485812E+00 -2.170525808E+02  2.174097453E+02  0.000000000E+00  0.00000E+00  9.000E+00
#rwgt            1           4   2903.1860111174487         54217137        9381           0
#pdf  -2  2 0.14616464E-03 0.22232006E+00 0.45603742E+02 0.26270158E+01 0.50993742E+00
</event>
<event>
      5  10011  2.10784E+03  1.00000E+01 -1.00000E+00  1.69570E-01
       2    -1     0     0   501     0  0.000000000E+00  0.000000000E+00  1.217556560E+02  1.217556560E+02  0.000000000E+00  0.00000E+00  9.000E+00
      -2    -1     0     0     0   501  0.000000000E+00  0.000000000E+00 -2.443503256E+00  2.443503256E+00  0.000000000E+00  0.00000E+00  9.000E+00
      23     2     1     2     0     0  0.000000000E+00  0.000000000E+00  1.193121527E+02  1.241991592E+02  3.449697620E+01  0.00000E+00  9.000E+00
      11     1     3     3     0     0 -9.468978255E-01  7.199896552E-01  1.216078028E+02  1.216136205E+02  5.109989100E-04  0.00000E+00  9.000E+00
     -11     1     3     3     0     0  9.468978255E-01 -7.199896552E-01 -2.295650095E+00  2.585538670E+00  5.109989100E-04  0.00000E+00  9.000E+00
#rwgt            1           7   2694.3310664965875         54217137        9495           0
#pdf   2 -2 0.30438914E-01 0.61087581E-03 0.34496976E+02 0.67849543E+00 0.15259095E+01
</event>
<event>
      5  10011  2.10784E+03  1.00000E+01 -1.00000E+00  1.88315E-01
       2    -1     0     0   501     0  0.000000000E+00  0.000000000E+00  4.859393981E+00  4.859393981E+00  0.000000000E+00  0.00000E+00  9.000E+00
      -2    -1     0     0     0   501  0.000000000E+00  0.000000000E+00 -4.938295308E+02  4.938295308E+02  0.000000000E+00  0.00000E+00  9.000E+00
      23     2     1     2     0     0  0.000000000E+00  0.000000000E+00 -4.889701368E+02  4.986889248E+02  9.797371585E+01  0.00000E+00  9.000E+00
      11     1     3     3     0     0  1.986921740E+01 -2.302500141E+01 -4.901370659E+01  5.768257903E+01  5.109989100E-04  0.00000E+00  9.000E+00
     -11     1     3     3     0     0 -1.986921740E+01  2.302500141E+01 -4.399564302E+02  4.410063458E+02  5.109989100E-04  0.00000E+00  9.000E+00
#rwgt            1           7   231.33903021360348         54217137        9528           0
#pdf   2 -2 0.12148485E-02 0.12345738E+00 0.97973716E+02 0.15192904E+01 0.86264297E-01
</event>
<event>
      6  10011  2.10784E+03  5.57891E+01 -1.00000E+00  1.36411E-01
      -2    -1     0     0     0   511  0.000000000E+00  0.000000000E+00  2.760810899E+01  2.760810899E+01  0.000000000E+00  0.00000E+00  9.000E+00
       2    -1     0     0   501     0  0.000000000E+00  0.000000000E+00 -6.282035765E+02  6.282035765E+02  0.000000000E+00  0.00000E+00  9.000E+00
      23     2     1     2     0     0 -5.528240524E+01 -7.502191617E+00 -5.420686368E+02  5.749549163E+02  1.833639048E+02  0.00000E+00  9.000E+00
      11     1     3     3     0     0 -1.858579923E+01 -6.807760134E+01 -7.668939082E+01  1.042173421E+02  5.109989100E-04  0.00000E+00  9.000E+00
     -11     1     3     3     0     0 -3.669660601E+01  6.057540972E+01 -4.653792460E+02  4.707375742E+02  5.109989100E-04  0.00000E+00  9.000E+00
      21     1     1     2   501   511  5.528240524E+01  7.502191617E+00 -5.852683075E+01  8.085676920E+01  1.651812370E-06  0.00000E+00  9.000E+00
#rwgt            1           4   685.31262348023472         54217137        9652           0
#pdf  -2  2 0.39327838E-02 0.13358191E+00 0.18336390E+03 0.93735916E+00 0.57654283E+00
</event>
<event>
      5  10011  2.10784E+03  1.00000E+01 -1.00000E+00  1.76732E-01
      -2    -1     0     0     0   501  0.000000000E+00  0.000000000E+00  2.700867031E+00  2.700867031E+00  0.000000000E+00  0.00000E+00  9.000E+00
       2    -1     0     0   501     0  0.000000000E+00  0.000000000E+00 -4.628589323E+01  4.628589323E+01  0.000000000E+00  0.00000E+00  9.000E+00
      23     2     1     2     0     0  0.000000000E+00  0.000000000E+00 -4.358502620E+01  4.898676026E+01  2.236175691E+01  0.00000E+00  9.000E+00
      11     1     3     3     0     0  1.050430403E+01  1.909067315E+00 -1.451800749E+01  1.802102891E+01  5.109989100E-04  0.00000E+00  9.000E+00
     -11     1     3     3     0     0 -1.050430403E+01 -1.909067315E+00 -2.906701870E+01  3.096573135E+01  5.109989100E-04  0.00000E+00  9.000E+00
#rwgt            1           4   34702.414798423531         54217137        9820           0
#pdf  -2  2 0.67521676E-03 0.11571473E-01 0.22361757E+02 0.13278183E+01 0.71047443E+00
</event>
<event>
      6  10011  2.10784E+03  1.12758E+01 -1.00000E+00  1.89909E-01
      21    -1     0     0   511   501  0.000000000E+00  0.000000000E+00  3.057671303E+00  3.057671303E+00  0.000000000E+00  0.00000E+00  9.000E+00
       2    -1     0     0   501     0  0.000000000E+00  0.000000000E+00 -4.213233271E+02  4.213233271E+02  0.000000000E+00  0.00000E+00  9.000E+00
      23     2     1     2     0     0  1.070719598E+01 -3.535400222E+00 -4.091295611E+02  4.098685442E+02  2.186510110E+01  0.00000E+00  9.000E+00
      11     1     3     3     0     0  9.228589948E+00  8.086379473E+00 -2.546129541E+02  2.549084400E+02  5.109989100E-04  0.00000E+00  9.000E+00
     -11     1     3     3     0     0  1.478606032E+00 -1.162177970E+01 -1.545166070E+02  1.549601042E+02  5.109989100E-04  0.00000E+00  9.000E+00
       2     1     1     2   511     0 -1.070719598E+01  3.535400222E+00 -9.136094637E+00  1.451245416E+01  0.000000000E+00  0.00000E+00  9.000E+00
#rwgt            1           4   5654.5922676525179         54217137        9903           0
#pdf  -2  2 0.82098893E-04 0.90988332E-01 0.21865101E+02 0.24902031E+01 0.65611828E+00
</event>
<event>
      6  10011  2.10784E+03  1.42234E+01 -1.00000E+00  1.79581E-01
       1    -1     0     0   501     0  0.000000000E+00  0.000000000E+00  6.345403215E+01  6.345403215E+01  0.000000000E+00  0.00000E+00  9.000E+00
      21    -1     0     0   511   501  0.000000000E+00  0.000000000E+00 -6.018499546E+00  6.018499546E+00  0.000000000E+00  0.00000E+00  9.000E+00
      23     2     1     2     0     0 -1.226716045E+01 -7.198762608E+00  3.853317180E+01  4.581656727E+01  2.029894331E+01  0.00000E+00  9.000E+00
      11     1     3     3     0     0 -1.134624564E+01 -1.311491352E+01  2.069513455E+01  2.700049705E+01  5.109989100E-04  0.00000E+00  9.000E+00
     -11     1     3     3     0     0 -9.209148160E-01  5.916150908E+00  1.783803724E+01  1.881607022E+01  5.109989100E-04  0.00000E+00  9.000E+00
       1     1     1     2   511     0  1.226716045E+01  7.198762608E+00  1.890236081E+01  2.365596442E+01  0.000000000E+00  0.00000E+00  9.000E+00
#rwgt            1           6   68089.269799251517         54217137        9964           0
#pdf   1 -1 0.86349210E-02 0.74560450E-03 0.20298943E+02 0.61131832E+00 0.12491166E+01
</event>
<event>
      6  10011  2.10784E+03  3.34825E+01 -1.00000E+00  1.49795E-01
      21    -1     0     0   501   511  0.000000000E+00  0.000000000E+00  1.011473979E+02  1.011473979E+02  0.000000000E+00  0.00000E+00  9.000E+00
      -3    -1     0     0     0   501  0.000000000E+00  0.000000000E+00 -4.581717681E+01  4.581717681E+01  0.000000000E+00  0.00000E+00  9.000E+00
      23     2     1     2     0     0  2.337519686E+00 -3.340081594E+01  1.970113181E+01  9.807172751E+01  9.004915679E+01  0.00000E+00  9.000E+00
      11     1     3     3     0     0 -3.580238209E+01 -2.857889393E+01  3.400672534E+01  5.705279231E+01  5.109989100E-04  0.00000E+00  9.000E+00
     -11     1     3     3     0     0  3.813990178E+01 -4.821922010E+00 -1.430559353E+01  4.101893521E+01  5.109989100E-04  0.00000E+00  9.000E+00
      -3     1     1     2     0   511 -2.337519686E+00  3.340081594E+01  3.562908925E+01  4.889284717E+01  0.000000000E+00  0.00000E+00  9.000E+00
#rwgt            1           8   413.79254531921106         54217137       10287           0
#pdf   3 -3 0.13798621E-01 0.91821340E-02 0.90049157E+02 0.39619176E+00 0.50476233E+00
</event>
<event>
      5  10011  2.10784E+03  1.00000E+01 -1.00000E+00  1.89970E-01
       5    -1     0     0   501     0  0.000000000E+00  0.000000000E+00  1.531337656E+01  1.531337656E+01  0.000000000E+00  0.00000E+00  9.000E+00
      -5    -1     0     0     0   501  0.000000000E+00  0.000000000E+00 -1.338961199E+02  1.338961199E+02  0.000000000E+00  0.00000E+00  9.000E+00
      23     2     1     2     0     0  0.000000000E+00  0.000000000E+00 -1.185827434E+02  1.492094965E+02  9.056272312E+01  0.00000E+00  9.000E+00
      11     1     3     3     0     0 -1.136672463E+01  1.020128531E+01  1.094148867E+01  1.878789039E+01  5.109989100E-04  0.00000E+00  9.000E+00
     -11     1     3     3     0     0  1.136672463E+01 -1.020128531E+01 -1.295242321E+02  1.304216061E+02  5.109989100E-04  0.00000E+00  9.000E+00
#rwgt            1          10   30.292048071978762         54217137       10381           0
#pdf   5 -5 0.38283441E-02 0.33474030E-01 0.90562723E+02 0.44265716E+00 0.79421805E-01
</event>
<event>
      5  10011  2.10784E+03  1.00000E+01 -1.00000E+00  1.95257E-01
       2    -1     0     0   501     0  0.000000000E+00  0.000000000E+00  4.052904370E+02  4.052904370E+02  0.000000000E+00  0.00000E+00  9.000E+00
      -2    -1     0     0     0   501  0.000000000E+00  0.000000000E+00 -5.336669076E+00  5.336669076E+00  0.000000000E+00  0.00000E+00  9.000E+00
      23     2     1     2     0     0  0.000000000E+00  0.000000000E+00  3.999537680E+02  4.106271061E+02  9.301399770E+01  0.00000E+00  9.000E+00
      11     1     3     3     0     0  3.670732024E+01  2.838412701E+01  2.138075348E+02  2.187847069E+02  5.109989100E-04  0.00000E+00  9.000E+00
     -11     1     3     3     0     0 -3.670732024E+01 -2.838412701E+01  1.861462332E+02  1.918423992E+02  5.109989100E-04  0.00000E+00  9.000E+00
#rwgt            1           7   6773.6852140139717         54217137       10471           0
#pdf   2 -2 0.10132261E+00 0.13341673E-02 0.93013998E+02 0.62494583E+00 0.13766352E+01
</event>
<event>
      6  10011  2.10784E+03  1.28087E+01 -1.00000E+00  1.84092E-01
       2    -1     0     0   511     0  0.000000000E+00  0.000000000E+00  1.606170676E+02  1.606170676E+02  0.000000000E+00  0.00000E+00  9.000E+00
      -2    -1     0     0     0   501  0.000000000E+00  0.000000000E+00 -2.033320638E+01  2.033320638E+01  0.000000000E+00  0.00000E+00  9.000E+00
      23     2     1     2     0     0  8.034976708E+00 -9.975126716E+00  9.079085524E+01  1.298266821E+02  9.191258886E+01  0.00000E+00  9.000E+00
      11     1     3     3     0     0 -2.574645952E+01 -3.998286616E+01  4.890381524E+01  6.821358302E+01  5.109989100E-04  0.00000E+00  9.000E+00
     -11     1     3     3     0     0  3.378143623E+01  3.000773944E+01  4.188704001E+01  6.161309911E+01  5.109989100E-04  0.00000E+00  9.000E+00
      21     1     1     2   511   501 -8.034976708E+00  9.975126716E+00  4.949300601E+01  5.112359189E+01  6.743495762E-07  0.00000E+00  9.000E+00
#rwgt            1           7   953.93542917514151         54217137       10581           0
#pdf   2 -2 0.27313247E-01 0.48327762E-02 0.91912589E+02 0.70085202E+00 0.79950381E+00
</event>
<event>
      5  10011  2.10784E+03  1.00000E+01 -1.00000E+00  1.68950E-01
      -2    -1     0     0     0   501  0.000000000E+00  0.000000000E+00  8.279192621E+00  8.279192621E+00  0.000000000E+00  0.00000E+00  9.000E+00
       2    -1     0     0   501     0  0.000000000E+00  0.000000000E+00 -1.557970881E+01  1.557970881E+01  0.000000000E+00  0.00000E+00  9.000E+00
      23     2     1     2     0     0  0.000000000E+00  0.000000000E+00 -7.300516192E+00  2.385890143E+01  2.271452489E+01  0.00000E+00  9.000E+00
      11     1     3     3     0     0 -1.912441075E+00  8.232202863E+00 -1.161937602E+01  1.436789804E+01  5.109989100E-04  0.00000E+00  9.000E+00
     -11     1     3     3     0     0  1.912441075E+00 -8.232202863E+00  4.318859829E+00  9.491003389E+00  5.109989100E-04  0.00000E+00  9.000E+00
#rwgt            1           4   77016.002991887537         54217137       10679           0
#pdf  -2  2 0.20697982E-02 0.38949272E-02 0.22714525E+02 0.91483199E+00 0.86191179E+00
</event>
<event>
      5  10011  2.10784E+03  1.00000E+01 -1.00000E+00  1.69497E-01
      -1    -1     0     0     0   501  0.000000000E+00  0.000000000E+00  1.598226307E+01  1.598226307E+01  0.000000000E+00  0.00000E+00  9.000E+00
       1    -1     0     0   501     0  0.000000000E+00  0.000000000E+00 -1.532094349E+01  1.532094349E+01  0.000000000E+00  0.00000E+00  9.000E+00
      23     2     1     2     0     0  0.000000000E+00  0.000000000E+00  6.613195799E-01  3.130320656E+01  3.129622018E+01  0.00000E+00  9.000E+00
      11     1     3     3     0     0 -1.628132944E+00 -9.444565377E+00 -1.204193250E+01  1.539021672E+01  5.109989100E-04  0.00000E+00  9.000E+00
     -11     1     3     3     0     0  1.628132944E+00  9.444565377E+00  1.270325208E+01  1.591298984E+01  5.109989100E-04  0.00000E+00  9.000E+00
#rwgt            1           5   522.19341995723414         54217137       10725           0
#pdf  -1  1 0.39955658E-02 0.38302359E-02 0.31296220E+02 0.74287126E+00 0.82553270E+00
</event>
<event>
      5  10011  2.10784E+03  1.00000E+01 -1.00000E+00  1.79413E-01
       2    -1     0     0   501     0  0.000000000E+00  0.000000000E+00  3.760739586E-01  3.760739586E-01  0.000000000E+00  0.00000E+00  9.000E+00
      -2    -1     0     0     0   501  0.000000000E+00  0.000000000E+00 -5.672583950E+02  5.672583950E+02  0.000000000E+00  0.00000E+00  9.000E+00
      23     2     1     2     0     0  0.000000000E+00  0.000000000E+00 -5.668823211E+02  5.676344690E+02  2.921171752E+01  0.00000E+00  9.000E+00
      11     1     3     3     0     0 -1.079538240E+01 -5.077148140E+00 -1.196909726E+02  1.202840249E+02  5.109989100E-04  0.00000E+00  9.000E+00
     -11     1     3     3     0     0  1.079538240E+01  5.077148140E+00 -4.471913484E+02  4.473504441E+02  5.109989100E-04  0.00000E+00  9.000E+00
#rwgt            1           7   2406.1462101988186         54217137       10846           0
#pdf   2 -2 0.94018490E-04 0.14181460E+00 0.29211718E+02 0.26559073E+01 0.78416720E-01
</event>
<event>
      5  10011  2.10784E+03  1.00000E+01 -1.00000E+00  1.77118E-01
       2    -1     0     0   501     0  0.000000000E+00  0.000000000E+00  2.888777547E+01  2.888777547E+01  0.000000000E+00  0.00000E+00  9.000E+00
      -2    -1     0     0     0   501  0.000000000E+00  0.000000000E+00 -2.513555565E+01  2.513555565E+01  0.000000000E+00  0.00000E+00  9.000E+00
      23     2     1     2     0     0  0.000000000E+00  0.000000000E+00  3.752219822E+00  5.402333112E+01  5.389286735E+01  0.00000E+00  9.000E+00
      11     1     3     3     0     0 -2.178500842E+01 -4.672392374E+00  1.706840630E+01  2.806685476E+01  5.109989100E-04  0.00000E+00  9.000E+00
     -11     1     3     3     0     0  2.178500842E+01  4.672392374E+00 -1.331618648E+01  2.595647636E+01  5.109989100E-04  0.00000E+00  9.000E+00
#rwgt            1           7   230.03740861225188         54217137       11233           0
#pdf   2 -2 0.72219439E-02 0.62838889E-02 0.53892867E+02 0.83402753E+00 0.67405258E+00
</event>
<event>
      5  10011  2.10784E+03  1.00000E+01 -1.00000E+00  1.89133E-01
      -2    -1     0     0     0   501  0.000000000E+00  0.000000000E+00  3.062818006E+00  3.062818006E+00  0.000000000E+00  0.00000E+00  9.000E+00
       2    -1     0     0   501     0  0.000000000E+00  0.000000000E+00 -3.333003656E+02  3.333003656E+02  0.000000000E+00  0.00000E+00  9.000E+00
      23     2     1     2     0     0  0.000000000E+00  0.000000000E+00 -3.302375476E+02  3.363631836E+02  6.390112240E+01  0.00000E+00  9.000E+00
      11     1     3     3     0     0 -4.748746890E+00  1.850917832E+01 -3.033055805E+01  3.584805477E+01  5.109989100E-04  0.00000E+00  9.000E+00
     -11     1     3     3     0     0  4.748746890E+00 -1.850917832E+01 -2.999069895E+02  3.005151288E+02  5.109989100E-04  0.00000E+00  9.000E+00
#rwgt            1           4   426.15873286862814         54217137       11272           0
#pdf  -2  2 0.76570450E-03 0.83325091E-01 0.63901122E+02 0.16005088E+01 0.64577896E+00
</event>
<event>
      5  10011  2.10784E+03  1.00000E+01 -1.00000E+00  1.70799E-01
       3    -1     0     0   501     0  0.000000000E+00  0.000000000E+00  3.072511113E+01  3.072511113E+01  0.000000000E+00  0.00000E+00  9.000E+00
      -3    -1     0     0     0   501  0.000000000E+00  0.000000000E+00 -6.764348151E+01  6.764348151E+01  0.000000000E+00  0.00000E+00  9.000E+00
      23     2     1     2     0     0  0.000000000E+00  0.000000000E+00 -3.691837038E+01  9.836859264E+01  9.117792467E+01  0.00000E+00  9.000E+00
      11     1     3     3     0     0  2.558748298E+01 -2.481556536E+01 -4.912288616E+01  6.069258204E+01  5.109989100E-04  0.00000E+00  9.000E+00
     -11     1     3     3     0     0 -2.558748298E+01  2.481556536E+01  1.220451577E+01  3.767601061E+01  5.109989100E-04  0.00000E+00  9.000E+00
#rwgt            1           8   901.14975531973550         54217137       11534           0
#pdf   3 -3 0.76812778E-02 0.16910870E-01 0.91177925E+02 0.55753057E+00 0.34799891E+00
</event>
<event>
      5  10011  2.10784E+03  1.00000E+01 -1.00000E+00  1.95098E-01
       1    -1     0     0   501     0  0.000000000E+00  0.000000000E+00  1.157153488E+02  1.157153488E+02  0.000000000E+00  0.00000E+00  9.000E+00
      -1    -1     0     0     0   501  0.000000000E+00  0.000000000E+00 -1.691520835E+01  1.691520835E+01  0.000000000E+00  0.00000E+00  9.000E+00
      23     2     1     2     0     0  0.000000000E+00  0.000000000E+00  9.880014050E+01  1.326305572E+02  8.848387955E+01  0.00000E+00  9.000E+00
      11     1     3     3     0     0  6.844212573E-01 -1.908155560E+01 -1.042134161E+01  2.175266783E+01  5.109989100E-04  0.00000E+00  9.000E+00
     -11     1     3     3     0     0 -6.844212573E-01  1.908155560E+01  1.092214821E+02  1.108778894E+02  5.109989100E-04  0.00000E+00  9.000E+00
#rwgt            1           6   2784.7809111587649         54217137       11637           0
#pdf   1 -1 0.28928837E-01 0.42288021E-02 0.88483880E+02 0.48973667E+00 0.82719785E+00
</event>
<event>
      5  10011  2.10784E+03  1.00000E+01 -1.00000E+00  1.93459E-01
       1    -1     0     0   501     0  0.000000000E+00  0.000000000E+00  5.160370583E+00  5.160370583E+00  0.000000000E+00  0.00000E+00  9.000E+00
      -1    -1     0     0     0   501  0.000000000E+00  0.000000000E+00 -3.612185943E+01  3.612185943E+01  0.000000000E+00  0.00000E+00  9.000E+00
      23     2     1     2     0     0  0.000000000E+00  0.000000000E+00 -3.096148885E+01  4.128223001E+01  2.730583680E+01  0.00000E+00  9.000E+00
      11     1     3     3     0     0  3.713233621E+00  3.871176260E+00  3.500489415E+00  6.405274074E+00  5.109989100E-04  0.00000E+00  9.000E+00
     -11     1     3     3     0     0 -3.713233621E+00 -3.871176260E+00 -3.446197826E+01  3.487695594E+01  5.109989100E-04  0.00000E+00  9.000E+00
#rwgt            1           6   2672.8404216529352         54217137       11806           0
#pdf   1 -1 0.12900926E-02 0.90304649E-02 0.27305837E+02 0.11476540E+01 0.51070664E+00
</event>
<event>
      5  10011  2.10784E+03  1.00000E+01 -1.00000E+00  1.61190E-01
      -2    -1     0     0     0   501  0.000000000E+00  0.000000000E+00  1.099364480E-01  1.099364480E-01  0.000000000E+00  0.00000E+00  9.000E+00
       2    -1     0     0   501     0  0.000000000E+00  0.000000000E+00 -1.533592642E+03  1.533592642E+03  0.000000000E+00  0.00000E+00  9.000E+00
      23     2     1     2     0     0  0.000000000E+00  0.000000000E+00 -1.533482706E+03  1.533702578E+03  2.596903754E+01  0.00000E+00  9.000E+00
      11     1     3     3     0     0 -8.722413881E+00 -5.586207536E+00 -1.229182314E+03  1.229225955E+03  5.109989100E-04  0.00000E+00  9.000E+00
     -11     1     3     3     0     0  8.722413881E+00  5.586207536E+00 -3.043003911E+02  3.044766235E+02  5.109989100E-04  0.00000E+00  9.000E+00
#rwgt            1           4   290465.28231652378         54217137       11884           0
#pdf  -2  2 0.27484112E-04 0.38339816E+00 0.25969038E+02 0.36036003E+01 0.29949048E+00
</event>
<event>
      5  10011  2.10784E+03  1.00000E+01 -1.00000E+00  1.80015E-01
       2    -1     0     0   501     0  0.000000000E+00  0.000000000E+00  1.878740981E+02  1.878740981E+02  0.000000000E+00  0.00000E+00  9.000E+00
      -2    -1     0     0     0   501  0.000000000E+00  0.000000000E+00 -2.189125797E+00  2.189125797E+00  0.000000000E+00  0.00000E+00  9.000E+00
      23     2     1     2     0     0  0.000000000E+00  0.000000000E+00  1.856849723E+02  1.900632239E+02  4.056008061E+01  0.00000E+00  9.000E+00
      11     1     3     3     0     0  1.327830585E+01  1.519574549E+01  1.022797355E+02  1.042514671E+02  5.109989100E-04  0.00000E+00  9.000E+00
     -11     1     3     3     0     0 -1.327830585E+01 -1.519574549E+01  8.340523675E+01  8.581175680E+01  5.109989100E-04  0.00000E+00  9.000E+00
#rwgt            1           7   6234.1008779265840         54217137       11919           0
#pdf   2 -2 0.46968525E-01 0.54728145E-03 0.40560081E+02 0.66993227E+00 0.16439242E+01
</event>
<event>
      5  10011  2.10784E+03  1.00000E+01 -1.00000E+00  1.83048E-01
      -2    -1     0     0     0   501  0.000000000E+00  0.000000000E+00  6.064904055E+00  6.064904055E+00  0.000000000E+00  0.00000E+00  9.000E+00
       2    -1     0     0   501     0  0.000000000E+00  0.000000000E+00 -3.246965518E+02  3.246965518E+02  0.000000000E+00  0.00000E+00  9.000E+00
      23     2     1     2     0     0  0.000000000E+00  0.000000000E+00 -3.186316478E+02  3.307614559E+02  8.875254213E+01  0.00000E+00  9.000E+00
      11     1     3     3     0     0 -3.073801402E+01 -1.266099674E+01 -2.688684780E+02  2.709158260E+02  5.109989100E-04  0.00000E+00  9.000E+00
     -11     1     3     3     0     0  3.073801402E+01  1.266099674E+01 -4.976316979E+01  5.984562985E+01  5.109989100E-04  0.00000E+00  9.000E+00
#rwgt            1           4   862.72493896395065         54217137       12056           0
#pdf  -2  2 0.15162260E-02 0.81174138E-01 0.88752542E+02 0.12989332E+01 0.64336629E+00
</event>
<event>
      5  10011  2.10784E+03  1.00000E+01 -1.00000E+00  1.93226E-01
      -1    -1     0     0     0   501  0.000000000E+00  0.000000000E+00  1.447701622E+02  1.447701622E+02  0.000000000E+00  0.00000E+00  9.000E+00
       1    -1     0     0   501     0  0.000000000E+00  0.000000000E+00 -4.002072365E+00  4.002072365E+00  0.000000000E+00  0.00000E+00  9.000E+00
      23     2     1     2     0     0  0.000000000E+00  0.000000000E+00  1.407680899E+02  1.487722346E+02  4.814065498E+01  0.00000E+00  9.000E+00
      11     1     3     3     0     0 -1.575275987E+01  7.962980281E+00  1.209587258E+02  1.222398129E+02  5.109989100E-04  0.00000E+00  9.000E+00
     -11     1     3     3     0     0  1.575275987E+01 -7.962980281E+00  1.980936405E+01  2.653242173E+01  5.109989100E-04  0.00000E+00  9.000E+00
#rwgt            1           5   25.450255318037943         54217137       12146           0
#pdf  -1  1 0.36192541E-01 0.10005181E-02 0.48140655E+02 0.23039862E+00 0.13998443E+01
</event>
<event>
      5  10011  2.10784E+03  1.00000E+01 -1.00000E+00  1.64804E-01
       2    -1     0     0   501     0  0.000000000E+00  0.000000000E+00  4.554554340E+01  4.554554340E+01  0.000000000E+00  0.00000E+00  9.000E+00
      -2    -1     0     0     0   501  0.000000000E+00  0.000000000E+00 -2.507986871E+00  2.507986871E+00  0.000000000E+00  0.00000E+00  9.000E+00
      23     2     1     2     0     0  0.000000000E+00  0.000000000E+00  4.303755653E+01  4.805353027E+01  2.137546489E+01  0.00000E+00  9.000E+00
      11     1     3     3     0     0  3.888563859E+00  7.888283697E+00  7.866188077E+00  1.179927386E+01  5.109989100E-04  0.00000E+00  9.000E+00
     -11     1     3     3     0     0 -3.888563859E+00 -7.888283697E+00  3.517136845E+01  3.625425641E+01  5.109989100E-04  0.00000E+00  9.000E+00
#rwgt            1           7   22835.405097836134         54217137       12243           0
#pdf   2 -2 0.11386386E-01 0.62699672E-03 0.21375465E+02 0.70875481E+00 0.13437242E+01
</event>
<event>
      6  10011  2.10784E+03  3.38006E+01 -1.00000E+00  1.49523E-01
      21    -1     0     0   511   501  0.000000000E+00  0.000000000E+00  2.275714581E+01  2.275714581E+01  0.000000000E+00  0.00000E+00  9.000E+00
       1    -1     0     0   501     0  0.000000000E+00  0.000000000E+00 -2.307620134E+02  2.307620134E+02  0.000000000E+00  0.00000E+00  9.000E+00
      23     2     1     2     0     0  3.120806185E+01 -1.298214373E+01 -1.938529552E+02  2.168755267E+02  9.117865245E+01  0.00000E+00  9.000E+00
      11     1     3     3     0     0  3.141837404E+01 -3.648016480E+01 -1.859525995E+02  1.920840595E+02  5.109989100E-04  0.00000E+00  9.000E+00
     -11     1     3     3     0     0 -2.103121837E-01  2.349802107E+01 -7.900355685E+00  2.479146719E+01  5.109989100E-04  0.00000E+00  9.000E+00
       1     1     1     2   511     0 -3.120806185E+01  1.298214373E+01 -1.415191243E+01  3.664363254E+01  0.000000000E+00  0.00000E+00  9.000E+00
#rwgt            1           5   1846.0270422116519         54217137       12350           0
#pdf  -1  1 0.26983774E-02 0.48139733E-01 0.91178652E+02 0.10148769E+01 0.43303303E+00
</event>
<event>
      5  10011  2.10784E+03  1.00000E+01 -1.00000E+00  1.93899E-01
      -2    -1     0     0     0   501  0.000000000E+00  0.000000000E+00  1.918449006E+02  1.918449006E+02  0.000000000E+00  0.00000E+00  9.000E+00
       2    -1     0     0   501     0  0.000000000E+00  0.000000000E+00 -1.085680302E+01  1.085680302E+01  0.000000000E+00  0.00000E+00  9.000E+00
      23     2     1     2     0     0  0.000000000E+00  0.000000000E+00  1.809880975E+02  2.027017036E+02  9.127589596E+01  0.00000E+00  9.000E+00
      11     1     3     3     0     0  2.750529281E+01  3.103039026E+01  1.328282521E+02  1.391501736E+02  5.109989100E-04  0.00000E+00  9.000E+00
     -11     1     3     3     0     0 -2.750529281E+01 -3.103039026E+01  4.815984545E+01  6.355153001E+01  5.109989100E-04  0.00000E+00  9.000E+00
#rwgt            1           4   597.30777404622324         54217137       12377           0
#pdf  -2  2 0.47961225E-01 0.27142008E-02 0.91275896E+02 0.22402004E+00 0.11497346E+01
</event>
<event>
      5  10011  2.10784E+03  1.00000E+01 -1.00000E+00  1.77739E-01
      -2    -1     0     0     0   501  0.000000000E+00  0.000000000E+00  6.531153188E-01  6.531153188E-01  0.000000000E+00  0.00000E+00  9.000E+00
       2    -1     0     0   501     0  0.000000000E+00  0.000000000E+00 -2.837724188E+02  2.837724188E+02  0.000000000E+00  0.00000E+00  9.000E+00
      23     2     1     2     0     0  0.000000000E+00  0.000000000E+00 -2.831193035E+02  2.844255341E+02  2.722764138E+01  0.00000E+00  9.000E+00
      11     1     3     3     0     0 -7.576279032E+00 -7.172290918E+00 -2.329232608E+02  2.331567867E+02  5.109989100E-04  0.00000E+00  9.000E+00
     -11     1     3     3     0     0  7.576279032E+00  7.172290918E+00 -5.019604264E+01  5.126874738E+01  5.109989100E-04  0.00000E+00  9.000E+00
#rwgt            1           4   81494.749186230169         54217137       12523           0
#pdf  -2  2 0.16327883E-03 0.70943105E-01 0.27227641E+02 0.21882484E+01 0.66116432E+00
</event>
<event>
      6  10011  2.10784E+03  1.27040E+01 -1.00000E+00  1.84456E-01
      -2    -1     0     0     0   511  0.000000000E+00  0.000000000E+00  3.139493911E+00  3.139493911E+00  0.000000000E+00  0.00000E+00  9.000E+00
       2    -1     0     0   501     0  0.000000000E+00  0.000000000E+00 -9.659756448E+02  9.659756448E+02  0.000000000E+00  0.00000E+00  9.000E+00
      23     2     1     2     0     0 -9.625412096E+00  8.291085388E+00 -8.818250331E+02  8.871139688E+02  9.588750728E+01  0.00000E+00  9.000E+00
      11     1     3     3     0     0  5.648152012E-02  4.712280801E-01  2.579033951E+00  2.622339117E+00  5.109989100E-04  0.00000E+00  9.000E+00
     -11     1     3     3     0     0 -9.681893617E+00  7.819857308E+00 -8.844040671E+02  8.844916297E+02  5.109989100E-04  0.00000E+00  9.000E+00
      21     1     1     2   501   511  9.625412096E+00 -8.291085388E+00 -8.101111781E+01  8.200116989E+01  1.348699152E-06  0.00000E+00  9.000E+00
#rwgt            1           4   991.61216160529989         54217137       12605           0
#pdf  -2  2 0.65538992E-03 0.21920191E+00 0.95887507E+02 0.18250607E+01 0.48534755E+00
</event>
<event>
      6  10011  2.10784E+03  2.40256E+01 -1.00000E+00  1.60050E-01
      -4    -1     0     0     0   501  0.000000000E+00  0.000000000E+00  4.761791732E+01  4.761791732E+01  0.000000000E+00  0.00000E+00  9.000E+00
      21    -1     0     0   501   511  0.000000000E+00  0.000000000E+00 -2.636880007E+02  2.636880007E+02  0.000000000E+00  0.00000E+00  9.000E+00
      23     2     1     2     0     0  1.965295622E+01  1.381986632E+01  3.302831772E+00  9.062129397E+01  8.731599412E+01  0.00000E+00  9.000E+00
      11     1     3     3     0     0  3.754560336E+01  6.589738657E+00  3.614333335E+01  5.253034869E+01  5.109989100E-04  0.00000E+00  9.000E+00
     -11     1     3     3     0     0 -1.789264715E+01  7.230127663E+00 -3.284050158E+01  3.809094528E+01  5.109989100E-04  0.00000E+00  9.000E+00
      -4     1     1     2     0   511 -1.965295622E+01 -1.381986632E+01 -2.193729152E+02  2.206846241E+02  0.000000000E+00  0.00000E+00  9.000E+00
#rwgt            1           2   148.72566656820013         54217137       12682           0
#pdf  -4  4 0.11319816E-01 0.10523696E-01 0.87315994E+02 0.32337010E+00 0.33999363E+00
</event>
<event>
      5  10011  2.10784E+03  1.00000E+01 -1.00000E+00  1.89413E-01
       2    -1     0     0   501     0  0.000000000E+00  0.000000000E+00  3.473400040E+02  3.473400040E+02  0.000000000E+00  0.00000E+00  9.000E+00
      -2    -1     0     0     0   501  0.000000000E+00  0.000000000E+00 -6.043982285E+00  6.043982285E+00  0.000000000E+00  0.00000E+00  9.000E+00
      23     2     1     2     0     0  0.000000000E+00  0.000000000E+00  3.412960217E+02  3.533839863E+02  9.163660472E+01  0.00000E+00  9.000E+00
      11     1     3     3     0     0 -3.107839261E+01  3.038886740E+01  2.265276358E+02  2.306601819E+02  5.109989100E-04  0.00000E+00  9.000E+00
     -11     1     3     3     0     0  3.107839261E+01 -3.038886740E+01  1.147683860E+02  1.227238044E+02  5.109989100E-04  0.00000E+00  9.000E+00
#rwgt            1           7   1847.0181384069731         54217137       12927           0
#pdf   2 -2 0.86835001E-01 0.15109956E-02 0.91636605E+02 0.63810879E+00 0.13068027E+01
</event>
<event>
      6  10011  2.10784E+03  1.74089E+01 -1.00000E+00  1.71494E-01
      21    -1     0     0   511   501  0.000000000E+00  0.000000000E+00  1.417056639E+02  1.417056639E+02  0.000000000E+00  0.00000E+00  9.000E+00
       1    -1     0     0   501     0  0.000000000E+00  0.000000000E+00 -2.452307986E+01  2.452307986E+01  0.000000000E+00  0.00000E+00  9.000E+00
      23     2     1     2     0     0  1.574811658E+01  7.420654033E+00  1.141579202E+02  1.485590558E+02  9.345957956E+01  0.00000E+00  9.000E+00
      11     1     3     3     0     0 -1.978398219E+01  1.962998614E+01 -5.286818364E-01  2.787511097E+01  5.109989100E-04  0.00000E+00  9.000E+00
     -11     1     3     3     0     0  3.553209877E+01 -1.220933210E+01  1.146866021E+02  1.206839448E+02  5.109989100E-04  0.00000E+00  9.000E+00
       1     1     1     2   511     0 -1.574811658E+01 -7.420654033E+00  3.024663774E+00  1.766968797E+01  0.000000000E+00  0.00000E+00  9.000E+00
#rwgt            1           5   397.38101041857851         54217137       12964           0
#pdf  -1  1 0.32284310E-01 0.42274274E-02 0.93459580E+02 0.25452990E+00 0.91346966E+00
</event>
<event>
      5  10011  2.10784E+03  1.00000E+01 -1.00000E+00  1.82900E-01
      -2    -1     0     0     0   501  0.000000000E+00  0.000000000E+00  4.421157706E+00  4.421157706E+00  0.000000000E+00  0.00000E+00  9.000E+00
       2    -1     0     0   501     0  0.000000000E+00  0.000000000E+00 -5.833890144E+01  5.833890144E+01  0.000000000E+00  0.00000E+00  9.000E+00
      23     2     1     2     0     0  0.000000000E+00  0.000000000E+00 -5.391774373E+01  6.276005914E+01  3.212011729E+01  0.00000E+00  9.000E+00
      11     1     3     3     0     0  4.530285684E+00 -1.536014041E+01 -2.932632451E+01  3.341392990E+01  5.109989100E-04  0.00000E+00  9.000E+00
     -11     1     3     3     0     0 -4.530285684E+00  1.536014041E+01 -2.459141922E+01  2.934612924E+01  5.109989100E-04  0.00000E+00  9.000E+00
#rwgt            1           4   12772.192184964542         54217137       13019           0
#pdf  -2  2 0.11052894E-02 0.14584725E-01 0.32120117E+02 0.12242100E+01 0.71281553E+00
</event>
<event>
      6  10011  2.10784E+03  3.84977E+01 -1.00000E+00  1.45875E-01
      -2    -1     0     0     0   501  0.000000000E+00  0.000000000E+00  1.724644685E+01  1.724644685E+01  0.000000000E+00  0.00000E+00  9.000E+00
       2    -1     0     0   511     0  0.000000000E+00  0.000000000E+00 -4.569369645E+02  4.569369645E+02  0.000000000E+00  0.00000E+00  9.000E+00
      23     2     1     2     0     0  2.102173675E+01 -3.225151428E+01 -1.366263734E+02  1.686839038E+02  9.113407651E+01  0.00000E+00  9.000E+00
      11     1     3     3     0     0  3.618302482E+01 -5.046807945E+01 -5.260875224E+01  8.138746305E+01  5.109989100E-04  0.00000E+00  9.000E+00
     -11     1     3     3     0     0 -1.516128807E+01  1.821656517E+01 -8.401762115E+01  8.729644074E+01  5.109989100E-04  0.00000E+00  9.000E+00
      21     1     1     2   511   501 -2.102173675E+01  3.225151428E+01 -3.030641443E+02  3.054995076E+02  3.814697266E-06  0.00000E+00  9.000E+00
#rwgt            1           4   1694.3843838693542         54217137       13048           0
#pdf  -2  2 0.36913492E-02 0.35155760E-01 0.91134077E+02 0.89948034E+00 0.68626210E+00
</event>
<event>
      5  10011  2.10784E+03  1.00000E+01 -1.00000E+00  1.89054E-01
       2    -1     0     0   501     0  0.000000000E+00  0.000000000E+00  4.994617024E+01  4.994617024E+01  0.000000000E+00  0.00000E+00  9.000E+00
      -2    -1     0     0     0   501  0.000000000E+00  0.000000000E+00 -5.583397631E+00  5.583397631E+00  0.000000000E+00  0.00000E+00  9.000E+00
      23     2     1     2     0     0  0.000000000E+00  0.000000000E+00  4.436277261E+01  5.552956787E+01  3.339876217E+01  0.00000E+00  9.000E+00
      11     1     3     3     0     0  8.687515791E+00  5.638552469E+00  4.014544174E-01  1.036471758E+01  5.109989100E-04  0.00000E+00  9.000E+00
     -11     1     3     3     0     0 -8.687515791E+00 -5.638552469E+00  4.396131819E+01  4.516485029E+01  5.109989100E-04  0.00000E+00  9.000E+00
#rwgt            1           7   1152.1004800562405         54217137       13086           0
#pdf   2 -2 0.12486543E-01 0.13958494E-02 0.33398762E+02 0.72813472E+00 0.11359692E+01
</event>
<event>
      5  10011  2.10784E+03  1.00000E+01 -1.00000E+00  1.92131E-01
       3    -1     0     0   501     0  0.000000000E+00  0.000000000E+00  4.832138874E+01  4.832138874E+01  0.000000000E+00  0.00000E+00  9.000E+00
      -3    -1     0     0     0   501  0.000000000E+00  0.000000000E+00 -4.025767368E+01  4.025767368E+01  0.000000000E+00  0.00000E+00  9.000E+00
      23     2     1     2     0     0  0.000000000E+00  0.000000000E+00  8.063715054E+00  8.857906242E+01  8.821126232E+01  0.00000E+00  9.000E+00
      11     1     3     3     0     0  1.259126669E+01 -4.172631499E+01  1.081883584E+01  4.490737766E+01  5.109989100E-04  0.00000E+00  9.000E+00
     -11     1     3     3     0     0 -1.259126669E+01  4.172631499E+01 -2.755120786E+00  4.367168477E+01  5.109989100E-04  0.00000E+00  9.000E+00
#rwgt            1           8   331.93930350912893         54217137       13111           0
#pdf   3 -3 0.12080347E-01 0.10064418E-01 0.88211262E+02 0.42907950E+00 0.47774549E+00
</event>
<event>
      6  10011  2.10784E+03  1.51492E+01 -1.00000E+00  1.76974E-01
      21    -1     0     0   511   501  0.000000000E+00  0.000000000E+00  2.437063955E+00  2.437063955E+00  0.000000000E+00  0.00000E+00  9.000E+00
       2    -1     0     0   501     0  0.000000000E+00  0.000000000E+00 -3.938310093E+02  3.938310093E+02  0.000000000E+00  0.00000E+00  9.000E+00
      23     2     1     2     0     0  7.805030414E+00 -1.298384676E+01 -3.298472415E+02  3.328843567E+02  4.222905871E+01  0.00000E+00  9.000E+00
      11     1     3     3     0     0 -4.853342688E-01  1.068971078E+01 -2.765769157E+01  2.965557906E+01  5.109989100E-04  0.00000E+00  9.000E+00
     -11     1     3     3     0     0  8.290364683E+00 -2.367355754E+01 -3.021895499E+02  3.032287776E+02  5.109989100E-04  0.00000E+00  9.000E+00
       2     1     1     2   511     0 -7.805030414E+00  1.298384676E+01 -6.154670382E+01  6.338371658E+01  0.000000000E+00  0.00000E+00  9.000E+00
#rwgt            1           4   2070.5155821926915         54217137       13228           0
#pdf  -2  2 0.35734129E-03 0.77975761E-01 0.42229059E+02 0.19185271E+01 0.65416944E+00
</event>
<event>
      5  10011  2.10784E+03  1.00000E+01 -1.00000E+00  1.94749E-01
      -1    -1     0     0     0   501  0.000000000E+00  0.000000000E+00  4.211831558E+00  4.211831558E+00  0.000000000E+00  0.00000E+00  9.000E+00
       1    -1     0     0   501     0  0.000000000E+00  0.000000000E+00 -5.147527972E+02  5.147527972E+02  0.000000000E+00  0.00000E+00  9.000E+00
      23     2     1     2     0     0  0.000000000E+00  0.000000000E+00 -5.105409657E+02  5.189646288E+02  9.312469224E+01  0.00000E+00  9.000E+00
      11     1     3     3     0     0 -2.507486326E+01 -3.886393394E+01 -2.852280408E+02  2.889536111E+02  5.109989100E-04  0.00000E+00  9.000E+00
     -11     1     3     3     0     0  2.507486326E+01  3.886393394E+01 -2.253129249E+02  2.300110177E+02  5.109989100E-04  0.00000E+00  9.000E+00
#rwgt            1           5   1753.4274499488497         54217137       13397           0
#pdf  -1  1 0.10529579E-02 0.12868820E+00 0.93124692E+02 0.15043697E+01 0.31637437E+00
</event>
<event>
      5  10011  2.10784E+03  1.00000E+01 -1.00000E+00  1.75042E-01
       1    -1     0     0   501     0  0.000000000E+00  0.000000000E+00  4.008474394E+00  4.008474394E+00  0.000000000E+00  0.00000E+00  9.000E+00
      -1    -1     0     0     0   501  0.000000000E+00  0.000000000E+00 -3.798349986E+01  3.798349986E+01  0.000000000E+00  0.00000E+00  9.000E+00
      23     2     1     2     0     0  0.000000000E+00  0.000000000E+00 -3.397502547E+01  4.199197426E+01  2.467840243E+01  0.00000E+00  9.000E+00
      11     1     3     3     0     0  1.421980223E+00 -1.188140789E+01 -1.186412490E+01  1.685073711E+01  5.109989100E-04  0.00000E+00  9.000E+00
     -11     1     3     3     0     0 -1.421980223E+00  1.188140789E+01 -2.211090057E+01  2.514123715E+01  5.109989100E-04  0.00000E+00  9.000E+00
#rwgt            1           6   537.41580827953362         54217137       13646           0
#pdf   1 -1 0.10021186E-02 0.94958750E-02 0.24678402E+02 0.12170371E+01 0.49285344E+00
</event>
<event>
      5  10011  2.10784E+03  1.00000E+01 -1.00000E+00  1.58275E-01
       2    -1     0     0   501     0  0.000000000E+00  0.000000000E+00  8.620703867E+00  8.620703867E+00  0.000000000E+00  0.00000E+00  9.000E+00
      -2    -1     0     0     0   501  0.000000000E+00  0.000000000E+00 -1.275199700E+01  1.275199700E+01  0.000000000E+00  0.00000E+00  9.000E+00
      23     2     1     2     0     0  0.000000000E+00  0.000000000E+00 -4.131293130E+00  2.137270086E+01  2.096961514E+01  0.00000E+00  9.000E+00
      11     1     3     3     0     0  7.546637158E+00  7.263483444E+00 -2.545077137E+00  1.077902324E+01  5.109989100E-04  0.00000E+00  9.000E+00
     -11     1     3     3     0     0 -7.546637158E+00 -7.263483444E+00 -1.586215993E+00  1.059367762E+01  5.109989100E-04  0.00000E+00  9.000E+00
#rwgt            1           7   21858.544714048079         54217137       13690           0
#pdf   2 -2 0.21551760E-02 0.31879992E-02 0.20969615E+02 0.98171663E+00 0.77261869E+00
</event>
<event>
      6  10011  2.10784E+03  1.26195E+01 -1.00000E+00  1.84752E-01
       1    -1     0     0   511     0  0.000000000E+00  0.000000000E+00  1.590547203E+01  1.590547203E+01  0.000000000E+00  0.00000E+00  9.000E+00
      -1    -1     0     0     0   501  0.000000000E+00  0.000000000E+00 -1.756462659E+02  1.756462659E+02  0.000000000E+00  0.00000E+00  9.000E+00
      23     2     1     2     0     0  1.261570890E+01 -3.108715633E-01 -1.496941118E+02  1.754213761E+02  9.058189294E+01  0.00000E+00  9.000E+00
      11     1     3     3     0     0 -3.088650419E+01 -1.916634310E+01 -3.160074995E+01  4.816567498E+01  5.109989100E-04  0.00000E+00  9.000E+00
     -11     1     3     3     0     0  4.350221309E+01  1.885547153E+01 -1.180933619E+02  1.272557012E+02  5.109989100E-04  0.00000E+00  9.000E+00
      21     1     1     2   511   501 -1.261570890E+01  3.108715633E-01 -1.004668202E+01  1.613036180E+01  3.576278687E-07  0.00000E+00  9.000E+00
#rwgt            1           6   303.40574278376556         54217137       13745           0
#pdf   1 -1 0.31851463E-02 0.40250699E-01 0.90581893E+02 0.10115005E+01 0.21259267E+00
</event>
<event>
      5  10011  2.10784E+03  1.00000E+01 -1.00000E+00  1.94694E-01
       2    -1     0     0   501     0  0.000000000E+00  0.000000000E+00  9.067048447E-01  9.067048447E-01  0.000000000E+00  0.00000E+00  9.000E+00
      -2    -1     0     0     0   501  0.000000000E+00  0.000000000E+00 -2.443596904E+02  2.443596904E+02  0.000000000E+00  0.00000E+00  9.000E+00
      23     2     1     2     0     0  0.000000000E+00  0.000000000E+00 -2.434529856E+02  2.452663953E+02  2.976992544E+01  0.00000E+00  9.000E+00
      11     1     3     3     0     0 -6.766093845E+00  1.175843286E+01 -7.126042063E+01  7.254025309E+01  5.109989100E-04  0.00000E+00  9.000E+00
     -11     1     3     3     0     0  6.766093845E+00 -1.175843286E+01 -1.721925650E+02  1.727261422E+02  5.109989100E-04  0.00000E+00  9.000E+00
#rwgt            1           7   13050.126013940220         54217137       14015           0
#pdf   2 -2 0.22667621E-03 0.61089923E-01 0.29769925E+02 0.20554015E+01 0.18948990E+00
</event>
<event>
      6  10011  2.10784E+03  1.33773E+01 -1.00000E+00  1.82194E-01
       2    -1     0     0   501     0  0.000000000E+00  0.000000000E+00  1.346154430E+03  1.346154430E+03  0.000000000E+00  0.00000E+00  9.000E+00
      21    -1     0     0   511   501  0.000000000E+00  0.000000000E+00 -2.625976459E+00  2.625976459E+00  0.000000000E+00  0.00000E+00  9.000E+00
      23     2     1     2     0     0 -5.838714706E+00  1.203580103E+01  1.285063642E+03  1.288804701E+03  9.721132335E+01  0.00000E+00  9.000E+00
      11     1     3     3     0     0  2.061443074E+01  6.015219466E+00  6.531806883E+01  6.875745586E+01  5.109989100E-04  0.00000E+00  9.000E+00
     -11     1     3     3     0     0 -2.645314545E+01  6.020581569E+00  1.219745574E+03  1.220047245E+03  5.109989100E-04  0.00000E+00  9.000E+00
       2     1     1     2   511     0  5.838714706E+00 -1.203580103E+01  5.846481142E+01  5.997570567E+01  0.000000000E+00  0.00000E+00  9.000E+00
#rwgt            1           7   1942.2040839006772         54217137       14170           0
#pdf   2 -2 0.31872988E+00 0.46326657E-03 0.97211323E+02 0.33895158E+00 0.20852741E+01
</event>
<event>
      6  10011  2.10784E+03  3.41468E+01 -1.00000E+00  1.49230E-01
       3    -1     0     0   501     0  0.000000000E+00  0.000000000E+00  2.044982760E+00  2.044982760E+00  0.000000000E+00  0.00000E+00  9.000E+00
      21    -1     0     0   511   501  0.000000000E+00  0.000000000E+00 -1.091296108E+03  1.091296108E+03  0.000000000E+00  0.00000E+00  9.000E+00
      23     2     1     2     0     0  2.173297379E+01 -2.633786730E+01 -4.527195864E+02  4.558943044E+02  4.145585049E+01  0.00000E+00  9.000E+00
      11     1     3     3     0     0  4.041199153E+00 -1.195687450E+01 -2.982564196E+01  3.238621709E+01  5.109989100E-04  0.00000E+00  9.000E+00
     -11     1     3     3     0     0  1.769177464E+01 -1.438099280E+01 -4.228939444E+02  4.235080874E+02  5.109989100E-04  0.00000E+00  9.000E+00
       3     1     1     2   511     0 -2.173297379E+01  2.633786730E+01 -6.365315384E+02  6.374467859E+02  0.000000000E+00  0.00000E+00  9.000E+00
#rwgt            1           8   124.19331419268943         54217137       14280           0
#pdf   3 -3 0.30630828E-03 0.87666354E-01 0.41455850E+02 0.18828242E+01 0.76961115E-01
</event>
<event>
      5  10011  2.10784E+03  1.00000E+01 -1.00000E+00  1.89298E-01
      -1    -1     0     0     0   501  0.000000000E+00  0.000000000E+00  1.387511910E+03  1.387511910E+03  0.000000000E+00  0.00000E+00  9.000E+00
       1    -1     0     0   501     0  0.000000000E+00  0.000000000E+00 -1.485717364E+00  1.485717364E+00  0.000000000E+00  0.00000E+00  9.000E+00
      23     2     1     2     0     0  0.000000000E+00  0.000000000E+00  1.386026193E+03  1.388997627E+03  9.080639929E+01  0.00000E+00  9.000E+00
      11     1     3     3     0     0 -2.333228935E+01  1.699049863E+00  1.288225656E+03  1.288438055E+03  5.109989100E-04  0.00000E+00  9.000E+00
     -11     1     3     3     0     0  2.333228935E+01 -1.699049863E+00  9.780053702E+01  1.005595721E+02  5.109989100E-04  0.00000E+00  9.000E+00
#rwgt            1           5   32.820737510218642         54217137       14315           0
#pdf  -1  1 0.34687798E+00 0.37142934E-03 0.90806399E+02 0.55745563E-02 0.22477048E+01
</event>
<event>
      6  10011  2.10784E+03  2.24954E+01 -1.00000E+00  1.62258E-01
      -1    -1     0     0     0   511  0.000000000E+00  0.000000000E+00  6.429505300E+00  6.429505300E+00  0.000000000E+00  0.00000E+00  9.000E+00
       1    -1     0     0   501     0  0.000000000E+00  0.000000000E+00 -7.038213301E+02  7.038213301E+02  0.000000000E+00  0.00000E+00  9.000E+00
      23     2     1     2     0     0 -2.246558681E+01 -1.158289763E+00 -6.588082132E+02  6.655883309E+02  9.205172566E+01  0.00000E+00  9.000E+00
      11     1     3     3     0     0  2.568001975E+01 -2.908830492E+01 -2.450277677E+02  2.480810348E+02  5.109989100E-04  0.00000E+00  9.000E+00
     -11     1     3     3     0     0 -4.814560656E+01  2.793001516E+01 -4.137804456E+02  4.175072962E+02  5.109989100E-04  0.00000E+00  9.000E+00
      21     1     1     2   501   511  2.246558681E+01  1.158289763E+00 -3.858361159E+01  4.466250451E+01  1.261592536E-06  0.00000E+00  9.000E+00
#rwgt            1           5   1647.5794504477813         54217137       14488           0
#pdf  -1  1 0.82328754E-03 0.16081715E+00 0.92051726E+02 0.16541934E+01 0.27777882E+00
</event>
<event>
      5  10011  2.10784E+03  1.00000E+01 -1.00000E+00  1.94244E-01
       2    -1     0     0   501     0  0.000000000E+00  0.000000000E+00  1.347810412E+01  1.347810412E+01  0.000000000E+00  0.00000E+00  9.000E+00
      -2    -1     0     0     0   501  0.000000000E+00  0.000000000E+00 -1.551866650E+02  1.551866650E+02  0.000000000E+00  0.00000E+00  9.000E+00
      23     2     1     2     0     0  0.000000000E+00  0.000000000E+00 -1.417085608E+02  1.686647691E+02  9.146850887E+01  0.00000E+00  9.000E+00
      11     1     3     3     0     0 -3.548297682E+01  2.448515204E+01 -9.900467705E+01  1.079837506E+02  5.109989100E-04  0.00000E+00  9.000E+00
     -11     1     3     3     0     0  3.548297682E+01 -2.448515204E+01 -4.270388380E+01  6.068101850E+01  5.109989100E-04  0.00000E+00  9.000E+00
#rwgt            1           7   238.12593456215603         54217137       14564           0
#pdf   2 -2 0.33695260E-02 0.38796666E-01 0.91468509E+02 0.10750429E+01 0.26114871E+00
</event>
<event>
      6  10011  2.10784E+03  1.64650E+01 -1.00000E+00  1.73648E-01
       2    -1     0     0   501     0  0.000000000E+00  0.000000000E+00  2.186996181E+02  2.186996181E+02  0.000000000E+00  0.00000E+00  9.000E+00
      -2    -1     0     0     0   511  0.000000000E+00  0.000000000E+00 -1.380045820E+01  1.380045820E+01  0.000000000E+00  0.00000E+00  9.000E+00
      23     2     1     2     0     0  1.520554767E+01 -6.315641099E+00  1.799926080E+02  2.026432123E+02  9.162879755E+01  0.00000E+00  9.000E+00
      11     1     3     3     0     0 -2.527454410E+01 -2.505499812E+01  1.337032383E+02  1.383586334E+02  5.109989100E-04  0.00000E+00  9.000E+00
     -11     1     3     3     0     0  4.048009177E+01  1.873935702E+01  4.628936975E+01  6.428457889E+01  5.109989100E-04  0.00000E+00  9.000E+00
      21     1     1     2   501   511 -1.520554767E+01  6.315641099E+00  2.490655186E+01  2.985686400E+01  3.371747881E-07  0.00000E+00  9.000E+00
#rwgt            1           7   807.13015981946546         54217137       14717           0
#pdf   2 -2 0.47075497E-01 0.27866927E-02 0.91628798E+02 0.67223663E+00 0.10153100E+01
</event>
<event>
      5  10011  2.10784E+03  1.00000E+01 -1.00000E+00  1.87415E-01
       1    -1     0     0   501     0  0.000000000E+00  0.000000000E+00  6.554423586E+02  6.554423586E+02  0.000000000E+00  0.00000E+00  9.000E+00
      -1    -1     0     0     0   501  0.000000000E+00  0.000000000E+00 -3.374490869E+00  3.374490869E+00  0.000000000E+00  0.00000E+00  9.000E+00
      23     2     1     2     0     0  0.000000000E+00  0.000000000E+00  6.520678677E+02  6.588168494E+02  9.405922080E+01  0.00000E+00  9.000E+00
      11     1     3     3     0     0 -1.822289428E+01 -2.261855665E+01  6.695981367E+01  7.298828418E+01  5.109989100E-04  0.00000E+00  9.000E+00
     -11     1     3     3     0     0  1.822289428E+01  2.261855665E+01  5.851080541E+02  5.858285653E+02  5.109989100E-04  0.00000E+00  9.000E+00
#rwgt            1           6   493.22731878776403         54217137       14786           0
#pdf   1 -1 0.16386059E+00 0.84362272E-03 0.94059221E+02 0.27378002E+00 0.16444064E+01
</event>
<event>
      6  10011  2.10784E+03  2.33012E+01 -1.00000E+00  1.61070E-01
       2    -1     0     0   501     0  0.000000000E+00  0.000000000E+00  2.520113544E+01  2.520113544E+01  0.000000000E+00  0.00000E+00  9.000E+00
      -2    -1     0     0     0   511  0.000000000E+00  0.000000000E+00 -1.889169480E+02  1.889169480E+02  0.000000000E+00  0.00000E+00  9.000E+00
      23     2     1     2     0     0 -1.962672275E+00 -2.321834588E+01 -6.236562251E+01  1.101238303E+02  8.772025681E+01  0.00000E+00  9.000E+00
      11     1     3     3     0     0 -1.803424910E-01  3.451716670E-01  2.225867234E+01  2.226207900E+01  5.109989100E-04  0.00000E+00  9.000E+00
     -11     1     3     3     0     0 -1.782329785E+00 -2.356351755E+01 -8.462429485E+01  8.786175128E+01  5.109989100E-04  0.00000E+00  9.000E+00
      21     1     1     2   501   511  1.962672275E+00  2.321834588E+01 -1.013501900E+02  1.039942532E+02  0.000000000E+00  0.00000E+00  9.000E+00
#rwgt            1           7   842.69802230386017         54217137       14860           0
#pdf   2 -2 0.57696922E-02 0.20838534E-01 0.87720257E+02 0.91883783E+00 0.38473668E+00
</event>
<event>
      5  10011  2.10784E+03  1.00000E+01 -1.00000E+00  1.94740E-01
       1    -1     0     0   501     0  0.000000000E+00  0.000000000E+00  9.975496585E+02  9.975496585E+02  0.000000000E+00  0.00000E+00  9.000E+00
      -1    -1     0     0     0   501  0.000000000E+00  0.000000000E+00 -1.939780685E+00  1.939780685E+00  0.000000000E+00  0.00000E+00  9.000E+00
      23     2     1     2     0     0  0.000000000E+00  0.000000000E+00  9.956098779E+02  9.994894392E+02  8.797789631E+01  0.00000E+00  9.000E+00
      11     1     3     3     0     0  7.094811954E+00 -8.368318264E+00  9.817572445E+02  9.818185435E+02  5.109989100E-04  0.00000E+00  9.000E+00
     -11     1     3     3     0     0 -7.094811954E+00  8.368318264E+00  1.385263340E+01  1.767089584E+01  5.109989100E-04  0.00000E+00  9.000E+00
#rwgt            1           6   2450.1200000691174         54217137       14895           0
#pdf   1 -1 0.24938741E+00 0.48494517E-03 0.87977896E+02 0.18265278E+00 0.20077387E+01
</event>
<event>
      5  10011  2.10784E+03  1.00000E+01 -1.00000E+00  1.84512E-01
      -2    -1     0     0     0   501  0.000000000E+00  0.000000000E+00  1.296748205E+00  1.296748205E+00  0.000000000E+00  0.00000E+00  9.000E+00
       2    -1     0     0   501     0  0.000000000E+00  0.000000000E+00 -7.914245901E+01  7.914245901E+01  0.000000000E+00  0.00000E+00  9.000E+00
      23     2     1     2     0     0  0.000000000E+00  0.000000000E+00 -7.784571080E+01  8.043920721E+01  2.026108010E+01  0.00000E+00  9.000E+00
      11     1     3     3     0     0  6.480071242E+00  5.338525135E+00 -1.641647745E+01  1.843886943E+01  5.109989100E-04  0.00000E+00  9.000E+00
     -11     1     3     3     0     0 -6.480071242E+00 -5.338525135E+00 -6.142923335E+01  6.200033778E+01  5.109989100E-04  0.00000E+00  9.000E+00
#rwgt            1           4   58671.636762212125         54217137       15012           0
#pdf  -2  2 0.32418705E-03 0.19785615E-01 0.20261080E+02 0.16242848E+01 0.67485038E+00
</event>
<event>
      5  10011  2.10784E+03  1.00000E+01 -1.00000E+00  1.95677E-01
      -2    -1     0     0     0   501  0.000000000E+00  0.000000000E+00  3.223245916E+00  3.223245916E+00  0.000000000E+00  0.00000E+00  9.000E+00
       2    -1     0     0   501     0  0.000000000E+00  0.000000000E+00 -6.479445073E+02  6.479445073E+02  0.000000000E+00  0.00000E+00  9.000E+00
      23     2     1     2     0     0  0.000000000E+00  0.000000000E+00 -6.447212614E+02  6.511677532E+02  9.139987936E+01  0.00000E+00  9.000E+00
      11     1     3     3     0     0  4.563615671E+01  2.078218701E+00 -3.311056303E+02  3.342423017E+02  5.109989100E-04  0.00000E+00  9.000E+00
     -11     1     3     3     0     0 -4.563615671E+01 -2.078218701E+00 -3.136156311E+02  3.169254516E+02  5.109989100E-04  0.00000E+00  9.000E+00
#rwgt            1           4   1979.8634344698062         54217137       15054           0
#pdf  -2  2 0.80581148E-03 0.16198613E+00 0.91399879E+02 0.16725459E+01 0.56108413E+00
</event>
<event>
      5  10011  2.10784E+03  1.00000E+01 -1.00000E+00  1.65370E-01
       1    -1     0     0   501     0  0.000000000E+00  0.000000000E+00  3.470457210E+00  3.470457210E+00  0.000000000E+00  0.00000E+00  9.000E+00
      -1    -1     0     0     0   501  0.000000000E+00  0.000000000E+00 -3.067413451E+01  3.067413451E+01  0.000000000E+00  0.00000E+00  9.000E+00
      23     2     1     2     0     0  0.000000000E+00  0.000000000E+00 -2.720367730E+01  3.414459172E+01  2.063523892E+01  0.00000E+00  9.000E+00
      11     1     3     3     0     0  4.005882911E+00  9.084043929E+00 -8.955085597E+00  1.337013501E+01  5.109989100E-04  0.00000E+00  9.000E+00
     -11     1     3     3     0     0 -4.005882911E+00 -9.084043929E+00 -1.824859171E+01  2.077445671E+01  5.109989100E-04  0.00000E+00  9.000E+00
#rwgt            1           6   2147.7476509727726         54217137       15163           0
#pdf   1 -1 0.86761430E-03 0.76685336E-02 0.20635239E+02 0.12194585E+01 0.53092255E+00
</event>
<event>
      5  10011  2.10784E+03  1.00000E+01 -1.00000E+00  1.82318E-01
      -1    -1     0     0     0   501  0.000000000E+00  0.000000000E+00  2.673681097E+00  2.673681097E+00  0.000000000E+00  0.00000E+00  9.000E+00
       1    -1     0     0   501     0  0.000000000E+00  0.000000000E+00 -8.456331758E+02  8.456331758E+02  0.000000000E+00  0.00000E+00  9.000E+00
      23     2     1     2     0     0  0.000000000E+00  0.000000000E+00 -8.429594947E+02  8.483068569E+02  9.509896817E+01  0.00000E+00  9.000E+00
      11     1     3     3     0     0 -1.032101792E+01 -4.607908040E+01 -3.716951643E+02  3.746826661E+02  5.109989100E-04  0.00000E+00  9.000E+00
     -11     1     3     3     0     0  1.032101792E+01  4.607908040E+01 -4.712643304E+02  4.736241909E+02  5.109989100E-04  0.00000E+00  9.000E+00
#rwgt            1           5   1167.5460544069522         54217137       15246           0
#pdf  -1  1 0.66842027E-03 0.21140829E+00 0.95098968E+02 0.18030734E+01 0.21997514E+00
</event>
<event>
      6  10011  2.10784E+03  4.41968E+01 -1.00000E+00  1.42199E-01
      21    -1     0     0   511   501  0.000000000E+00  0.000000000E+00  6.054515154E+01  6.054515154E+01  0.000000000E+00  0.00000E+00  9.000E+00
       1    -1     0     0   501     0  0.000000000E+00  0.000000000E+00 -3.796612762E+02  3.796612762E+02  0.000000000E+00  0.00000E+00  9.000E+00
      23     2     1     2     0     0 -2.759643361E+01 -3.452235354E+01 -3.641584640E+02  3.771020033E+02  8.741383159E+01  0.00000E+00  9.000E+00
      11     1     3     3     0     0  2.166269519E+01 -1.162941830E+01 -3.110920038E+01  3.965221408E+01  5.109989100E-04  0.00000E+00  9.000E+00
     -11     1     3     3     0     0 -4.925912880E+01 -2.289293524E+01 -3.330492636E+02  3.374497892E+02  5.109989100E-04  0.00000E+00  9.000E+00
       1     1     1     2   511     0  2.759643361E+01  3.452235354E+01  4.504233938E+01  6.310442440E+01  0.000000000E+00  0.00000E+00  9.000E+00
#rwgt            1           5   1399.9143787674718         54217137       15293           0
#pdf  -1  1 0.14438806E-02 0.82689253E-01 0.87413832E+02 0.13122821E+01 0.37650229E+00
</event>
<event>
      5  10011  2.10784E+03  1.00000E+01 -1.00000E+00  1.89696E-01
       3    -1     0     0   501     0  0.000000000E+00  0.000000000E+00  1.170709729E+02  1.170709729E+02  0.000000000E+00  0.00000E+00  9.000E+00
      -3    -1     0     0     0   501  0.000000000E+00  0.000000000E+00 -1.766837884E+01  1.766837884E+01  0.000000000E+00  0.00000E+00  9.000E+00
      23     2     1     2     0     0  0.000000000E+00  0.000000000E+00  9.940259406E+01  1.347393517E+02  9.096052550E+01  0.00000E+00  9.000E+00
      11     1     3     3     0     0 -2.814134655E+01  3.474299916E+01  6.204528502E+01  7.647632817E+01  5.109989100E-04  0.00000E+00  9.000E+00
     -11     1     3     3     0     0  2.814134655E+01 -3.474299916E+01  3.735730904E+01  5.826302357E+01  5.109989100E-04  0.00000E+00  9.000E+00
#rwgt            1           8   593.21334173392711         54217137       15432           0
#pdf   3 -3 0.29267743E-01 0.44170947E-02 0.90960526E+02 0.23354200E+00 0.74002500E+00
</event>
<event>
      5  10011  2.10784E+03  1.00000E+01 -1.00000E+00  1.93006E-01
      -5    -1     0     0     0   501  0.000000000E+00  0.000000000E+00  2.588773884E+02  2.588773884E+02  0.000000000E+00  0.00000E+00  9.000E+00
       5    -1     0     0   501     0  0.000000000E+00  0.000000000E+00 -7.899180216E+00  7.899180216E+00  0.000000000E+00  0.00000E+00  9.000E+00
      23     2     1     2     0     0  0.000000000E+00  0.000000000E+00  2.509782081E+02  2.667765686E+02  9.044156444E+01  0.00000E+00  9.000E+00
      11     1     3     3     0     0 -2.334778472E+01  6.754740195E+00  2.379723242E+02  2.392103105E+02  5.109989100E-04  0.00000E+00  9.000E+00
     -11     1     3     3     0     0  2.334778472E+01 -6.754740195E+00  1.300588394E+01  2.756625807E+01  5.109989100E-04  0.00000E+00  9.000E+00
#rwgt            1           1   3.3955637857883008         54217137       15559           0
#pdf  -5  5 0.64719347E-01 0.19747951E-02 0.90441564E+02 0.33276509E-01 0.64258048E+00
</event>
<event>
      5  10011  2.10784E+03  1.00000E+01 -1.00000E+00  1.91998E-01
       2    -1     0     0   501     0  0.000000000E+00  0.000000000E+00  3.376970448E+01  3.376970448E+01  0.000000000E+00  0.00000E+00  9.000E+00
      -2    -1     0     0     0   501  0.000000000E+00  0.000000000E+00 -6.781590213E+00  6.781590213E+00  0.000000000E+00  0.00000E+00  9.000E+00
      23     2     1     2     0     0  0.000000000E+00  0.000000000E+00  2.698811427E+01  4.055129469E+01  3.026630453E+01  0.00000E+00  9.000E+00
      11     1     3     3     0     0  5.615714762E+00  7.115312448E+00 -2.741974832E+00  9.470076545E+00  5.109989100E-04  0.00000E+00  9.000E+00
     -11     1     3     3     0     0 -5.615714762E+00 -7.115312448E+00  2.973008910E+01  3.108121815E+01  5.109989100E-04  0.00000E+00  9.000E+00
#rwgt            1           7   7422.3364654181305         54217137       15648           0
#pdf   2 -2 0.84424261E-02 0.16953976E-02 0.30266305E+02 0.76598945E+00 0.10392909E+01
</event>
<event>
      5  10011  2.10784E+03  1.00000E+01 -1.00000E+00  1.95538E-01
      -2    -1     0     0     0   501  0.000000000E+00  0.000000000E+00  8.760836988E+00  8.760836988E+00  0.000000000E+00  0.00000E+00  9.000E+00
       2    -1     0     0   501     0  0.000000000E+00  0.000000000E+00 -2.444588089E+02  2.444588089E+02  0.000000000E+00  0.00000E+00  9.000E+00
      23     2     1     2     0     0  0.000000000E+00  0.000000000E+00 -2.356979719E+02  2.532196459E+02  9.255622670E+01  0.00000E+00  9.000E+00
      11     1     3     3     0     0 -3.745067513E+00 -2.095966888E+01 -2.302630095E+02  2.312452957E+02  5.109989100E-04  0.00000E+00  9.000E+00
     -11     1     3     3     0     0  3.745067513E+00  2.095966888E+01 -5.434962465E+00  2.197435022E+01  5.109989100E-04  0.00000E+00  9.000E+00
#rwgt            1           4   1106.7853929212845         54217137       15706           0
#pdf  -2  2 0.21902092E-02 0.61114702E-01 0.92556227E+02 0.11245164E+01 0.65965536E+00
</event>
<event>
      5  10011  2.10784E+03  1.00000E+01 -1.00000E+00  1.92349E-01
      -1    -1     0     0     0   501  0.000000000E+00  0.000000000E+00  3.527583529E+01  3.527583529E+01  0.000000000E+00  0.00000E+00  9.000E+00
       1    -1     0     0   501     0  0.000000000E+00  0.000000000E+00 -5.100166619E+01  5.100166619E+01  0.000000000E+00  0.00000E+00  9.000E+00
      23     2     1     2     0     0  0.000000000E+00  0.000000000E+00 -1.572583090E+01  8.627750148E+01  8.483221972E+01  0.00000E+00  9.000E+00
      11     1     3     3     0     0  1.679793235E+01 -3.468557597E+01 -2.588102922E+01  4.642291875E+01  5.109989100E-04  0.00000E+00  9.000E+00
     -11     1     3     3     0     0 -1.679793235E+01  3.468557597E+01  1.015519832E+01  3.985458273E+01  5.109989100E-04  0.00000E+00  9.000E+00
#rwgt            1           5   1751.8027449629342         54217137       15774           0
#pdf  -1  1 0.88189588E-02 0.12750417E-01 0.84832220E+02 0.57523579E+00 0.61692853E+00
</event>
<event>
      6  10011  2.10784E+03  2.26061E+01 -1.00000E+00  1.62092E-01
      21    -1     0     0   511   501  0.000000000E+00  0.000000000E+00  8.777185054E+01  8.777185054E+01  0.000000000E+00  0.00000E+00  9.000E+00
       1    -1     0     0   501     0  0.000000000E+00  0.000000000E+00 -7.725182979E+01  7.725182979E+01  0.000000000E+00  0.00000E+00  9.000E+00
      23     2     1     2     0     0  1.957349588E+01 -1.130985953E+01 -4.392934569E+01  1.060680346E+02  9.385950074E+01  0.00000E+00  9.000E+00
      11     1     3     3     0     0 -3.237005610E+01  1.250513642E+01 -1.210827086E+00  3.472268814E+01  5.109989100E-04  0.00000E+00  9.000E+00
     -11     1     3     3     0     0  5.194355198E+01 -2.381499595E+01 -4.271851860E+01  7.134534643E+01  5.109989100E-04  0.00000E+00  9.000E+00
       1     1     1     2   511     0 -1.957349588E+01  1.130985953E+01  5.444936643E+01  5.895564577E+01  0.000000000E+00  0.00000E+00  9.000E+00
#rwgt            1           5   736.02510790199221         54217137       15851           0
#pdf  -1  1 0.75513997E-02 0.18228421E-01 0.93859501E+02 0.62825090E+00 0.55626192E+00
</event>
<event>
      5  10011  2.10784E+03  1.00000E+01 -1.00000E+00  1.48909E-01
      -2    -1     0     0     0   501  0.000000000E+00  0.000000000E+00  2.534448645E-01  2.534448645E-01  0.000000000E+00  0.00000E+00  9.000E+00
       2    -1     0     0   501     0  0.000000000E+00  0.000000000E+00 -5.346408993E+02  5.346408993E+02  0.000000000E+00  0.00000E+00  9.000E+00
      23     2     1     2     0     0  0.000000000E+00  0.000000000E+00 -5.343874544E+02  5.348943442E+02  2.328106443E+01  0.00000E+00  9.000E+00
      11     1     3     3     0     0  1.125261377E+01  1.516936529E+00 -2.082599660E+02  2.085692591E+02  5.109989100E-04  0.00000E+00  9.000E+00
     -11     1     3     3     0     0 -1.125261377E+01 -1.516936529E+00 -3.261274884E+02  3.263250850E+02  5.109989100E-04  0.00000E+00  9.000E+00
#rwgt            1           4   139722.30011633510         54217137       15954           0
#pdf  -2  2 0.63361216E-04 0.13366022E+00 0.23281064E+02 0.27407252E+01 0.62990658E+00
</event>
<event>
      5  10011  2.10784E+03  1.00000E+01 -1.00000E+00  1.91971E-01
      -1    -1     0     0     0   501  0.000000000E+00  0.000000000E+00  7.605848493E+00  7.605848493E+00  0.000000000E+00  0.00000E+00  9.000E+00
       1    -1     0     0   501     0  0.000000000E+00  0.000000000E+00 -2.708876713E+02  2.708876713E+02  0.000000000E+00  0.00000E+00  9.000E+00
      23     2     1     2     0     0  0.000000000E+00  0.000000000E+00 -2.632818228E+02  2.784935198E+02  9.078172914E+01  0.00000E+00  9.000E+00
      11     1     3     3     0     0  1.561534402E+00 -2.391239585E+01 -1.338056972E+01  2.744595984E+01  5.109989100E-04  0.00000E+00  9.000E+00
     -11     1     3     3     0     0 -1.561534402E+00  2.391239585E+01 -2.499012531E+02  2.510475600E+02  5.109989100E-04  0.00000E+00  9.000E+00
#rwgt            1           5   937.86417802296171         54217137       16062           0
#pdf  -1  1 0.19014621E-02 0.67721918E-01 0.90781729E+02 0.11777574E+01 0.39793985E+00
</event>
<event>
      5  10011  2.10784E+03  1.00000E+01 -1.00000E+00  1.88699E-01
      -1    -1     0     0     0   501  0.000000000E+00  0.000000000E+00  3.999113024E+00  3.999113024E+00  0.000000000E+00  0.00000E+00  9.000E+00
       1    -1     0     0   501     0  0.000000000E+00  0.000000000E+00 -5.251171635E+02  5.251171635E+02  0.000000000E+00  0.00000E+00  9.000E+00
      23     2     1     2     0     0  0.000000000E+00  0.000000000E+00 -5.211180505E+02  5.291162765E+02  9.165157691E+01  0.00000E+00  9.000E+00
      11     1     3     3     0     0 -3.162314370E+01  2.746140049E+01 -1.531957396E+02  1.588177772E+02  5.109989100E-04  0.00000E+00  9.000E+00
     -11     1     3     3     0     0  3.162314370E+01 -2.746140049E+01 -3.679223109E+02  3.702984993E+02  5.109989100E-04  0.00000E+00  9.000E+00
#rwgt            1           5   2976.6390352608464         54217137       16190           0
#pdf  -1  1 0.99977826E-03 0.13127929E+00 0.91651577E+02 0.15317120E+01 0.31345910E+00
</event>
<event>
      5  10011  2.10784E+03  1.00000E+01 -1.00000E+00  1.90342E-01
      -3    -1     0     0     0   501  0.000000000E+00  0.000000000E+00  6.554585519E+01  6.554585519E+01  0.000000000E+00  0.00000E+00  9.000E+00
       3    -1     0     0   501     0  0.000000000E+00  0.000000000E+00 -3.743493942E+01  3.743493942E+01  0.000000000E+00  0.00000E+00  9.000E+00
      23     2     1     2     0     0  0.000000000E+00  0.000000000E+00  2.811091577E+01  1.029807946E+02  9.906977578E+01  0.00000E+00  9.000E+00
      11     1     3     3     0     0 -1.255690002E+01 -3.623430000E+01 -1.853684031E+01  4.259359909E+01  5.109989100E-04  0.00000E+00  9.000E+00
     -11     1     3     3     0     0  1.255690002E+01  3.623430000E+01  4.664775608E+01  6.038719552E+01  5.109989100E-04  0.00000E+00  9.000E+00
#rwgt            1           3   940.74859351433702         54217137       16270           0
#pdf  -3  3 0.16386464E-01 0.93587349E-02 0.99069776E+02 0.35704553E+00 0.50335540E+00
</event>
<event>
      6  10011  2.10784E+03  5.59994E+01 -1.00000E+00  1.36321E-01
       1    -1     0     0   501     0  0.000000000E+00  0.000000000E+00  2.734740393E+02  2.734740393E+02  0.000000000E+00  0.00000E+00  9.000E+00
      21    -1     0     0   511   501  0.000000000E+00  0.000000000E+00 -3.489945662E+01  3.489945662E+01  0.000000000E+00  0.00000E+00  9.000E+00
      23     2     1     2     0     0 -1.999552248E+00 -5.596365379E+01  2.320289101E+02  2.519928735E+02  8.079024940E+01  0.00000E+00  9.000E+00
      11     1     3     3     0     0 -1.962270082E+01 -1.546839353E+01  1.879227006E+02  1.895765360E+02  5.109989100E-04  0.00000E+00  9.000E+00
     -11     1     3     3     0     0  1.762314857E+01 -4.049526027E+01  4.410620948E+01  6.241633749E+01  5.109989100E-04  0.00000E+00  9.000E+00
       1     1     1     2   511     0  1.999552248E+00  5.596365379E+01  6.545672529E+00  5.638062242E+01  0.000000000E+00  0.00000E+00  9.000E+00
#rwgt            1           6   336.94928982169483         54217137       16355           0
#pdf   1 -1 0.49725371E-01 0.20509727E-02 0.80790249E+02 0.42992245E+00 0.11228559E+01
</event>
<event>
      5  10011  2.10784E+03  1.00000E+01 -1.00000E+00  1.79018E-01
       2    -1     0     0   501     0  0.000000000E+00  0.000000000E+00  3.510880974E+02  3.510880974E+02  0.000000000E+00  0.00000E+00  9.000E+00
      -2    -1     0     0     0   501  0.000000000E+00  0.000000000E+00 -5.895248737E+00  5.895248737E+00  0.000000000E+00  0.00000E+00  9.000E+00
      23     2     1     2     0     0  0.000000000E+00  0.000000000E+00  3.451928487E+02  3.569833462E+02  9.098904688E+01  0.00000E+00  9.000E+00
      11     1     3     3     0     0 -1.436149786E+01 -2.627361382E+01  3.069793757E+02  3.084362050E+02  5.109989100E-04  0.00000E+00  9.000E+00
     -11     1     3     3     0     0  1.436149786E+01  2.627361382E+01  3.821347298E+01  4.854714123E+01  5.109989100E-04  0.00000E+00  9.000E+00
#rwgt            1           7   3793.9198935325862         54217137       16538           0
#pdf   2 -2 0.87772024E-01 0.14738122E-02 0.90989047E+02 0.63739321E+00 0.13185882E+01
</event>
<event>
      5  10011  2.10784E+03  1.00000E+01 -1.00000E+00  1.95526E-01
       2    -1     0     0   501     0  0.000000000E+00  0.000000000E+00  1.935811694E+01  1.935811694E+01  0.000000000E+00  0.00000E+00  9.000E+00
      -2    -1     0     0     0   501  0.000000000E+00  0.000000000E+00 -9.439683916E+01  9.439683916E+01  0.000000000E+00  0.00000E+00  9.000E+00
      23     2     1     2     0     0  0.000000000E+00  0.000000000E+00 -7.503872222E+01  1.137549561E+02  8.549491332E+01  0.00000E+00  9.000E+00
      11     1     3     3     0     0  2.639739734E+01 -2.261750528E+01 -7.062219491E+01  7.871383961E+01  5.109989100E-04  0.00000E+00  9.000E+00
     -11     1     3     3     0     0 -2.639739734E+01  2.261750528E+01 -4.416527317E+00  3.504111650E+01  5.109989100E-04  0.00000E+00  9.000E+00
#rwgt            1           7   221.39170787659788         54217137       16649           0
#pdf   2 -2 0.48395292E-02 0.23599210E-01 0.85494913E+02 0.96092230E+00 0.35777781E+00
</event>
<event>
      6  10011  2.10784E+03  1.84376E+01 -1.00000E+00  1.69332E-01
       1    -1     0     0   511     0  0.000000000E+00  0.000000000E+00  1.144614858E+02  1.144614858E+02  0.000000000E+00  0.00000E+00  9.000E+00
      -1    -1     0     0     0   501  0.000000000E+00  0.000000000E+00 -3.416997915E+01  3.416997915E+01  0.000000000E+00  0.00000E+00  9.000E+00
      23     2     1     2     0     0  8.728070827E+00 -1.624085974E+01  3.313646451E+01  9.800002466E+01  9.036611537E+01  0.00000E+00  9.000E+00
      11     1     3     3     0     0  7.881990433E+00  1.649396703E+01  5.544268719E+01  5.837866292E+01  5.109989100E-04  0.00000E+00  9.000E+00
     -11     1     3     3     0     0  8.460803938E-01 -3.273482677E+01 -2.230622268E+01  3.962136174E+01  5.109989100E-04  0.00000E+00  9.000E+00
      21     1     1     2   511   501 -8.728070827E+00  1.624085974E+01  4.715504213E+01  5.063144027E+01  6.743495762E-07  0.00000E+00  9.000E+00
#rwgt            1           6   1112.0815368190074         54217137       16909           0
#pdf   1 -1 0.16061164E-01 0.79442745E-02 0.90366115E+02 0.57654286E+00 0.61024983E+00
</event>
<event>
      5  10011  2.10784E+03  1.00000E+01 -1.00000E+00  1.85009E-01
       4    -1     0     0   501     0  0.000000000E+00  0.000000000E+00  1.510732770E+02  1.510732770E+02  0.000000000E+00  0.00000E+00  9.000E+00
      -4    -1     0     0     0   501  0.000000000E+00  0.000000000E+00 -1.442079934E+01  1.442079934E+01  0.000000000E+00  0.00000E+00  9.000E+00
      23     2     1     2     0     0  0.000000000E+00  0.000000000E+00  1.366524776E+02  1.654940763E+02  9.335089529E+01  0.00000E+00  9.000E+00
      11     1     3     3     0     0  3.521936111E+01  2.771749914E+01  9.143647771E+01  1.018297236E+02  5.109989100E-04  0.00000E+00  9.000E+00
     -11     1     3     3     0     0 -3.521936111E+01 -2.771749914E+01  4.521599993E+01  6.366435270E+01  5.109989100E-04  0.00000E+00  9.000E+00
#rwgt            1           9   10.568159784043488         54217137       17063           0
#pdf   4 -4 0.37768319E-01 0.36051998E-02 0.93350895E+02 0.11316739E+00 0.65419692E+00
</event>
<event>
      6  10011  2.10784E+03  1.05843E+01 -1.00000E+00  1.92942E-01
       1    -1     0     0   511     0  0.000000000E+00  0.000000000E+00  4.632861196E+01  4.632861196E+01  0.000000000E+00  0.00000E+00  9.000E+00
      -1    -1     0     0     0   501  0.000000000E+00  0.000000000E+00 -1.680938743E+01  1.680938743E+01  0.000000000E+00  0.00000E+00  9.000E+00
      23     2     1     2     0     0  7.272185236E+00 -7.690368049E+00  6.260054188E+00  3.758383253E+01  3.551520450E+01  0.00000E+00  9.000E+00
      11     1     3     3     0     0 -1.163007388E+01 -1.144767109E+01  8.110215584E+00  1.822315529E+01  5.109989100E-04  0.00000E+00  9.000E+00
     -11     1     3     3     0     0  1.890225911E+01  3.757303040E+00 -1.850161397E+00  1.936067724E+01  5.109989100E-04  0.00000E+00  9.000E+00
      21     1     1     2   511   501 -7.272185236E+00  7.690368049E+00  2.325917034E+01  2.555416686E+01  3.371747881E-07  0.00000E+00  9.000E+00
#rwgt            1           6   342.32578499781579         54217137       17168           0
#pdf   1 -1 0.52522064E-02 0.37523806E-02 0.35515204E+02 0.75899320E+00 0.77687537E+00
</event>
<event>
      6  10011  2.10784E+03  1.42486E+01 -1.00000E+00  1.79506E-01
       2    -1     0     0   501     0  0.000000000E+00  0.000000000E+00  2.151966056E+02  2.151966056E+02  0.000000000E+00  0.00000E+00  9.000E+00
      -2    -1     0     0     0   511  0.000000000E+00  0.000000000E+00 -1.341631964E+01  1.341631964E+01  0.000000000E+00  0.00000E+00  9.000E+00
      23     2     1     2     0     0 -6.094085660E+00  1.287958359E+01  1.836751273E+02  2.055734304E+02  9.121875538E+01  0.00000E+00  9.000E+00
      11     1     3     3     0     0  4.116414453E+01  1.748460335E+01  8.387726319E+01  9.505573854E+01  5.109989100E-04  0.00000E+00  9.000E+00
     -11     1     3     3     0     0 -4.725823019E+01 -4.605019759E+00  9.979786417E+01  1.105176919E+02  5.109989100E-04  0.00000E+00  9.000E+00
      21     1     1     2   501   511  6.094085660E+00 -1.287958359E+01  1.810515863E+01  2.303949484E+01  2.384185791E-07  0.00000E+00  9.000E+00
#rwgt            1           7   1777.6251265753201         54217137       17212           0
#pdf   2 -2 0.48073133E-01 0.27044931E-02 0.91218755E+02 0.67126145E+00 0.10276732E+01
</event>
<event>
      6  10011  2.10784E+03  4.16380E+01 -1.00000E+00  1.43764E-01
      21    -1     0     0   511   501  0.000000000E+00  0.000000000E+00  4.413624978E+01  4.413624978E+01  0.000000000E+00  0.00000E+00  9.000E+00
       1    -1     0     0   501     0  0.000000000E+00  0.000000000E+00 -1.172862610E+02  1.172862610E+02  0.000000000E+00  0.00000E+00  9.000E+00
      23     2     1     2     0     0 -3.296707704E+01 -2.543415205E+01 -1.500030001E+01  8.990249138E+01  7.825423118E+01  0.00000E+00  9.000E+00
      11     1     3     3     0     0  1.931320615E+01 -2.381268949E+01  9.562545642E+00  3.211676185E+01  5.109989100E-04  0.00000E+00  9.000E+00
     -11     1     3     3     0     0 -5.228028319E+01 -1.621462562E+00 -2.456284565E+01  5.778572954E+01  5.109989100E-04  0.00000E+00  9.000E+00
       1     1     1     2   511     0  3.296707704E+01  2.543415205E+01 -5.814971118E+01  7.152001936E+01  0.000000000E+00  0.00000E+00  9.000E+00
#rwgt            1           5   378.13223631745080         54217137       17315           0
#pdf  -1  1 0.82655467E-02 0.11576149E-01 0.78254231E+02 0.59100625E+00 0.63296940E+00
</event>
<event>
      6  10011  2.10784E+03  3.60795E+01 -1.00000E+00  1.47670E-01
      21    -1     0     0   511   501  0.000000000E+00  0.000000000E+00  2.402658835E+01  2.402658835E+01  0.000000000E+00  0.00000E+00  9.000E+00
       2    -1     0     0   501     0  0.000000000E+00  0.000000000E+00 -1.953725184E+02  1.953725184E+02  0.000000000E+00  0.00000E+00  9.000E+00
      23     2     1     2     0     0 -3.561172074E+01 -5.791059184E+00 -1.461788830E+02  1.754092070E+02  8.999107212E+01  0.00000E+00  9.000E+00
      11     1     3     3     0     0 -6.193810472E+01 -1.994210169E+01 -1.155636476E+02  1.326234251E+02  5.109989100E-04  0.00000E+00  9.000E+00
     -11     1     3     3     0     0  2.632638398E+01  1.415104251E+01 -3.061523533E+01  4.278578190E+01  5.109989100E-04  0.00000E+00  9.000E+00
       2     1     1     2   511     0  3.561172074E+01  5.791059184E+00 -2.516704709E+01  4.398989975E+01  0.000000000E+00  0.00000E+00  9.000E+00
#rwgt            1           4   331.34201501306762         54217137       17439           0
#pdf  -2  2 0.33913786E-02 0.37311491E-01 0.89991072E+02 0.93171980E+00 0.68315788E+00
</event>
<event>
      5  10011  2.10784E+03  1.00000E+01 -1.00000E+00  1.93529E-01
      -1    -1     0     0     0   501  0.000000000E+00  0.000000000E+00  5.188301101E+00  5.188301101E+00  0.000000000E+00  0.00000E+00  9.000E+00
       1    -1     0     0   501     0  0.000000000E+00  0.000000000E+00 -3.629444221E+02  3.629444221E+02  0.000000000E+00  0.00000E+00  9.000E+00
      23     2     1     2     0     0  0.000000000E+00  0.000000000E+00 -3.577561210E+02  3.681327232E+02  8.678859245E+01  0.00000E+00  9.000E+00
      11     1     3     3     0     0 -2.437790048E+00 -4.146012408E+01 -2.322260293E+02  2.359106047E+02  5.109989100E-04  0.00000E+00  9.000E+00
     -11     1     3     3     0     0  2.437790048E+00  4.146012408E+01 -1.255300918E+02  1.322221186E+02  5.109989100E-04  0.00000E+00  9.000E+00
#rwgt            1           5   1216.5501271984522         54217137       17479           0
#pdf  -1  1 0.12970753E-02 0.90736106E-01 0.86788592E+02 0.13689409E+01 0.36569590E+00
</event>
<event>
      5  10011  2.10784E+03  1.00000E+01 -1.00000E+00  1.80889E-01
      -2    -1     0     0     0   501  0.000000000E+00  0.000000000E+00  1.106983458E+00  1.106983458E+00  0.000000000E+00  0.00000E+00  9.000E+00
       2    -1     0     0   501     0  0.000000000E+00  0.000000000E+00 -1.853292503E+02  1.853292503E+02  0.000000000E+00  0.00000E+00  9.000E+00
      23     2     1     2     0     0  0.000000000E+00  0.000000000E+00 -1.842222668E+02  1.864362337E+02  2.864656449E+01  0.00000E+00  9.000E+00
      11     1     3     3     0     0  6.420779323E+00 -1.441037306E+00 -1.749089174E+02  1.750326609E+02  5.109989100E-04  0.00000E+00  9.000E+00
     -11     1     3     3     0     0 -6.420779323E+00  1.441037306E+00 -9.313349394E+00  1.140357281E+01  5.109989100E-04  0.00000E+00  9.000E+00
#rwgt            1           4   9090.0905347681582         54217137       17595           0
#pdf  -2  2 0.27674586E-03 0.46332313E-01 0.28646564E+02 0.18861193E+01 0.66802591E+00
</event>
<event>
      6  10011  2.10784E+03  2.62052E+01 -1.00000E+00  1.57230E-01
      21    -1     0     0   511   501  0.000000000E+00  0.000000000E+00  5.122215449E+01  5.122215449E+01  0.000000000E+00  0.00000E+00  9.000E+00
       2    -1     0     0   501     0  0.000000000E+00  0.000000000E+00 -3.023691890E+02  3.023691890E+02  0.000000000E+00  0.00000E+00  9.000E+00
      23     2     1     2     0     0 -1.923536188E+01  1.779639082E+01 -2.921759257E+02  3.049078700E+02  8.315844506E+01  0.00000E+00  9.000E+00
      11     1     3     3     0     0  6.599657757E-01  4.735032441E+01 -1.184251102E+02  1.275421323E+02  5.109989100E-04  0.00000E+00  9.000E+00
     -11     1     3     3     0     0 -1.989532766E+01 -2.955393358E+01 -1.737508155E+02  1.773657378E+02  5.109989100E-04  0.00000E+00  9.000E+00
       2     1     1     2   511     0  1.923536188E+01 -1.779639082E+01  4.102889119E+01  4.868347343E+01  0.000000000E+00  0.00000E+00  9.000E+00
#rwgt            1           4   3034.7975460478142         54217137       17708           0
#pdf  -2  2 0.15179103E-02 0.71184698E-01 0.83158445E+02 0.12859697E+01 0.65221671E+00
</event>
<event>
      6  10011  2.10784E+03  1.39690E+01 -1.00000E+00  1.80341E-01
      21    -1     0     0   511   501  0.000000000E+00  0.000000000E+00  1.438070997E+02  1.438070997E+02  0.000000000E+00  0.00000E+00  9.000E+00
       4    -1     0     0   501     0  0.000000000E+00  0.000000000E+00 -8.594270314E+00  8.594270314E+00  0.000000000E+00  0.00000E+00  9.000E+00
      23     2     1     2     0     0  8.862734776E-01  1.394088591E+01  2.384184201E+01  4.015774833E+01  2.913893511E+01  0.00000E+00  9.000E+00
      11     1     3     3     0     0  4.472425608E+00  8.219307485E+00  2.974906750E+01  3.118600045E+01  5.109989100E-04  0.00000E+00  9.000E+00
     -11     1     3     3     0     0 -3.586152130E+00  5.721578424E+00 -5.907225491E+00  8.971747880E+00  5.109989100E-04  0.00000E+00  9.000E+00
       4     1     1     2   511     0 -8.862734776E-01 -1.394088591E+01  1.113709874E+02  1.122436217E+02  0.000000000E+00  0.00000E+00  9.000E+00
#rwgt            1           2   2338.0259602118922         54217137       17802           0
#pdf  -4  4 0.72138430E-02 0.18390803E-02 0.29138935E+02 0.35928366E+00 0.70636764E+00
</event>
<event>
      6  10011  2.10784E+03  1.60337E+01 -1.00000E+00  1.74694E-01
      21    -1     0     0   511   501  0.000000000E+00  0.000000000E+00  2.820925283E+01  2.820925283E+01  0.000000000E+00  0.00000E+00  9.000E+00
       2    -1     0     0   501     0  0.000000000E+00  0.000000000E+00 -3.300193989E+01  3.300193989E+01  0.000000000E+00  0.00000E+00  9.000E+00
      23     2     1     2     0     0  4.049295728E+00 -1.551398315E+01 -2.347720202E+01  3.659023481E+01  2.303444810E+01  0.00000E+00  9.000E+00
      11     1     3     3     0     0 -7.171749838E-01  5.723957538E+00 -8.082664327E+00  9.930130550E+00  5.109989100E-04  0.00000E+00  9.000E+00
     -11     1     3     3     0     0  4.766470712E+00 -2.123794069E+01 -1.539453770E+01  2.666010426E+01  5.109989100E-04  0.00000E+00  9.000E+00
       2     1     1     2   511     0 -4.049295728E+00  1.551398315E+01  1.868451497E+01  2.462095792E+01  0.000000000E+00  0.00000E+00  9.000E+00
#rwgt            1           4   86699.346619343647         54217137       17898           0
#pdf  -2  2 0.13453022E-02 0.61624839E-02 0.23034448E+02 0.10646734E+01 0.78513368E+00
</event>
<event>
      5  10011  2.10784E+03  1.00000E+01 -1.00000E+00  1.65466E-01
       3    -1     0     0   501     0  0.000000000E+00  0.000000000E+00  2.166500345E+01  2.166500345E+01  0.000000000E+00  0.00000E+00  9.000E+00
      -3    -1     0     0     0   501  0.000000000E+00  0.000000000E+00 -9.551683235E+01  9.551683235E+01  0.000000000E+00  0.00000E+00  9.000E+00
      23     2     1     2     0     0  0.000000000E+00  0.000000000E+00 -7.385182890E+01  1.171818358E+02  9.098071229E+01  0.00000E+00  9.000E+00
      11     1     3     3     0     0  4.090084795E+01  1.808945059E+01 -4.764524399E+01  6.534659028E+01  5.109989100E-04  0.00000E+00  9.000E+00
     -11     1     3     3     0     0 -4.090084795E+01 -1.808945059E+01 -2.620658491E+01  5.183524552E+01  5.109989100E-04  0.00000E+00  9.000E+00
#rwgt            1           8   491.01451103824485         54217137       17968           0
#pdf   3 -3 0.54162509E-02 0.23879208E-01 0.90980712E+02 0.66883088E+00 0.27325153E+00
</event>
<event>
      5  10011  2.10784E+03  1.00000E+01 -1.00000E+00  1.83534E-01
      -1    -1     0     0     0   501  0.000000000E+00  0.000000000E+00  4.038482103E+00  4.038482103E+00  0.000000000E+00  0.00000E+00  9.000E+00
       1    -1     0     0   501     0  0.000000000E+00  0.000000000E+00 -4.921978010E+02  4.921978010E+02  0.000000000E+00  0.00000E+00  9.000E+00
      23     2     1     2     0     0  0.000000000E+00  0.000000000E+00 -4.881593189E+02  4.962362831E+02  8.916797655E+01  0.00000E+00  9.000E+00
      11     1     3     3     0     0  2.230963332E+01 -1.530384191E+00 -2.942865016E+01  3.696088832E+01  5.109989100E-04  0.00000E+00  9.000E+00
     -11     1     3     3     0     0 -2.230963332E+01  1.530384191E+00 -4.587306687E+02  4.592753948E+02  5.109989100E-04  0.00000E+00  9.000E+00
#rwgt            1           5   1845.4577893835435         54217137       18078           0
#pdf  -1  1 0.10096205E-02 0.12304945E+00 0.89167977E+02 0.15190702E+01 0.32408834E+00
</event>
<event>
      5  10011  2.10784E+03  1.00000E+01 -1.00000E+00  1.87505E-01
      -1    -1     0     0     0   501  0.000000000E+00  0.000000000E+00  1.666114344E+01  1.666114344E+01  0.000000000E+00  0.00000E+00  9.000E+00
       1    -1     0     0   501     0  0.000000000E+00  0.000000000E+00 -1.231876749E+01  1.231876749E+01  0.000000000E+00  0.00000E+00  9.000E+00
      23     2     1     2     0     0  0.000000000E+00  0.000000000E+00  4.342375942E+00  2.897991093E+01  2.865273126E+01  0.00000E+00  9.000E+00
      11     1     3     3     0     0  7.919319207E+00  2.381220774E+00  1.400344455E+01  1.626291144E+01  5.109989100E-04  0.00000E+00  9.000E+00
     -11     1     3     3     0     0 -7.919319207E+00 -2.381220774E+00 -9.661068607E+00  1.271699949E+01  5.109989100E-04  0.00000E+00  9.000E+00
#rwgt            1           5   3253.8000706943121         54217137       18188           0
#pdf  -1  1 0.41652859E-02 0.30796919E-02 0.28652731E+02 0.72056918E+00 0.87345788E+00
</event>
<event>
      6  10011  2.10784E+03  1.59934E+01 -1.00000E+00  1.74794E-01
      21    -1     0     0   501   511  0.000000000E+00  0.000000000E+00  2.488225498E+01  2.488225498E+01  0.000000000E+00  0.00000E+00  9.000E+00
      -2    -1     0     0     0   501  0.000000000E+00  0.000000000E+00 -2.822712008E+01  2.822712008E+01  0.000000000E+00  0.00000E+00  9.000E+00
      23     2     1     2     0     0 -1.166205438E+01 -1.094470645E+01 -1.301736771E+01  3.441853724E+01  2.755709949E+01  0.00000E+00  9.000E+00
      11     1     3     3     0     0  7.411734223E+00 -9.507712252E+00 -1.649497426E+00  1.216763077E+01  5.109989100E-04  0.00000E+00  9.000E+00
     -11     1     3     3     0     0 -1.907378860E+01 -1.436994194E+00 -1.136787029E+01  2.225090647E+01  5.109989100E-04  0.00000E+00  9.000E+00
      -2     1     1     2     0   511  1.166205438E+01  1.094470645E+01  9.672502620E+00  1.869083782E+01  0.000000000E+00  0.00000E+00  9.000E+00
#rwgt            1           7   4330.4963953816623         54217137       18252           0
#pdf   2 -2 0.23137087E-02 0.51283583E-02 0.27557099E+02 0.10138232E+01 0.67547073E+00
</event>
<event>
      6  10011  2.10784E+03  1.15176E+01 -1.00000E+00  1.88915E-01
      21    -1     0     0   511   501  0.000000000E+00  0.000000000E+00  3.346493215E+01  3.346493215E+01  0.000000000E+00  0.00000E+00  9.000E+00
       1    -1     0     0   501     0  0.000000000E+00  0.000000000E+00 -2.718779269E+02  2.718779269E+02  0.000000000E+00  0.00000E+00  9.000E+00
      23     2     1     2     0     0  1.114049127E+01  2.922919918E+00 -2.628176816E+02  2.783568859E+02  9.097674524E+01  0.00000E+00  9.000E+00
      11     1     3     3     0     0  3.133845719E+01 -2.007389577E+01 -2.318428399E+02  2.348109082E+02  5.109989100E-04  0.00000E+00  9.000E+00
     -11     1     3     3     0     0 -2.019796592E+01  2.299681568E+01 -3.097484171E+01  4.354597775E+01  5.109989100E-04  0.00000E+00  9.000E+00
       1     1     1     2   511     0 -1.114049127E+01 -2.922919918E+00  2.440468683E+01  2.698597313E+01  0.000000000E+00  0.00000E+00  9.000E+00
#rwgt            1           5   553.92718351498877         54217137       18526           0
#pdf  -1  1 0.19270195E-02 0.67111154E-01 0.90976745E+02 0.11715297E+01 0.39887579E+00
</event>
<event>
      5  10011  2.10784E+03  1.00000E+01 -1.00000E+00  1.83419E-01
      -2    -1     0     0     0   501  0.000000000E+00  0.000000000E+00  3.658787513E+00  3.658787513E+00  0.000000000E+00  0.00000E+00  9.000E+00
       2    -1     0     0   501     0  0.000000000E+00  0.000000000E+00 -2.828380384E+01  2.828380384E+01  0.000000000E+00  0.00000E+00  9.000E+00
      23     2     1     2     0     0  0.000000000E+00  0.000000000E+00 -2.462501633E+01  3.194259135E+01  2.034545928E+01  0.00000E+00  9.000E+00
      11     1     3     3     0     0 -4.872474069E+00  8.880778098E+00 -1.084372559E+01  1.483898946E+01  5.109989100E-04  0.00000E+00  9.000E+00
     -11     1     3     3     0     0  4.872474069E+00 -8.880778098E+00 -1.378129074E+01  1.710360190E+01  5.109989100E-04  0.00000E+00  9.000E+00
#rwgt            1           4   21208.954840977131         54217137       18724           0
#pdf  -2  2 0.91469688E-03 0.70709510E-02 0.20345459E+02 0.11750510E+01 0.75415103E+00
</event>
<event>
      5  10011  2.10784E+03  1.00000E+01 -1.00000E+00  1.88326E-01
      -2    -1     0     0     0   501  0.000000000E+00  0.000000000E+00  6.671903469E+00  6.671903469E+00  0.000000000E+00  0.00000E+00  9.000E+00
       2    -1     0     0   501     0  0.000000000E+00  0.000000000E+00 -3.286607235E+02  3.286607235E+02  0.000000000E+00  0.00000E+00  9.000E+00
      23     2     1     2     0     0  0.000000000E+00  0.000000000E+00 -3.219888201E+02  3.353326270E+02  9.365452731E+01  0.00000E+00  9.000E+00
      11     1     3     3     0     0 -4.390100966E+01  6.378150088E+00 -2.146800227E+02  2.192156281E+02  5.109989100E-04  0.00000E+00  9.000E+00
     -11     1     3     3     0     0  4.390100966E+01 -6.378150088E+00 -1.073087974E+02  1.161169989E+02  5.109989100E-04  0.00000E+00  9.000E+00
#rwgt            1           4   1051.2452910554778         54217137       18883           0
#pdf  -2  2 0.16679759E-02 0.82165181E-01 0.93654527E+02 0.12595276E+01 0.64185393E+00
</event>
<event>
      6  10011  2.10784E+03  2.88185E+01 -1.00000E+00  1.54257E-01
      21    -1     0     0   511   501  0.000000000E+00  0.000000000E+00  1.470432612E+01  1.470432612E+01  0.000000000E+00  0.00000E+00  9.000E+00
       2    -1     0     0   501     0  0.000000000E+00  0.000000000E+00 -3.160453396E+02  3.160453396E+02  0.000000000E+00  0.00000E+00  9.000E+00
      23     2     1     2     0     0 -2.565120944E+01  1.313479076E+01 -1.572364512E+02  1.837917393E+02  9.069506363E+01  0.00000E+00  9.000E+00
      11     1     3     3     0     0 -1.842367498E+01  2.608164681E+01 -6.828193476E+00  3.265437683E+01  5.109989100E-04  0.00000E+00  9.000E+00
     -11     1     3     3     0     0 -7.227534471E+00 -1.294685605E+01 -1.504082577E+02  1.511373625E+02  5.109989100E-04  0.00000E+00  9.000E+00
       2     1     1     2   511     0  2.565120944E+01 -1.313479076E+01 -1.441045623E+02  1.469579264E+02  0.000000000E+00  0.00000E+00  9.000E+00
#rwgt            1           4   1039.1588288066368         54217137       18989           0
#pdf  -2  2 0.31635451E-02 0.40626863E-01 0.90695064E+02 0.96080453E+00 0.67908860E+00
</event>
<event>
      5  10011  2.10784E+03  1.00000E+01 -1.00000E+00  1.83450E-01
       2    -1     0     0   501     0  0.000000000E+00  0.000000000E+00  5.606125998E+01  5.606125998E+01  0.000000000E+00  0.00000E+00  9.000E+00
      -2    -1     0     0     0   501  0.000000000E+00  0.000000000E+00 -3.805491104E+01  3.805491104E+01  0.000000000E+00  0.00000E+00  9.000E+00
      23     2     1     2     0     0  0.000000000E+00  0.000000000E+00  1.800634894E+01  9.411617102E+01  9.237762200E+01  0.00000E+00  9.000E+00
      11     1     3     3     0     0  3.612753574E+01  2.736079825E+01  1.809263327E+01  4.879708493E+01  5.109989100E-04  0.00000E+00  9.000E+00
     -11     1     3     3     0     0 -3.612753574E+01 -2.736079825E+01 -8.628432803E-02  4.531908609E+01  5.109989100E-04  0.00000E+00  9.000E+00
#rwgt            1           7   171.32571914313854         54217137       19165           0
#pdf   2 -2 0.14015315E-01 0.95137278E-02 0.92377622E+02 0.76187526E+00 0.58282963E+00
</event>
<event>
      6  10011  2.10784E+03  1.89713E+01 -1.00000E+00  1.68279E-01
      -2    -1     0     0     0   501  0.000000000E+00  0.000000000E+00  7.528566446E+01  7.528566446E+01  0.000000000E+00  0.00000E+00  9.000E+00
      21    -1     0     0   501   511  0.000000000E+00  0.000000000E+00 -1.085922464E+01  1.085922464E+01  0.000000000E+00  0.00000E+00  9.000E+00
      23     2     1     2     0     0 -6.915839661E+00  1.766580926E+01  6.058447275E+01  6.678848536E+01  2.074400595E+01  0.00000E+00  9.000E+00
      11     1     3     3     0     0 -1.914636901E-01 -2.341991072E+00  2.713154396E+01  2.723310960E+01  5.109989100E-04  0.00000E+00  9.000E+00
     -11     1     3     3     0     0 -6.724375971E+00  2.000780033E+01  3.345292879E+01  3.955537575E+01  5.109989100E-04  0.00000E+00  9.000E+00
      -2     1     1     2     0   511  6.915839661E+00 -1.766580926E+01  3.841967065E+00  1.935640374E+01  0.000000000E+00  0.00000E+00  9.000E+00
#rwgt            1           4   63147.041258265810         54217137       19295           0
#pdf  -2  2 0.11749109E-01 0.57226918E-03 0.20744006E+02 0.46432922E+00 0.14144104E+01
</event>
<event>
      6  10011  2.10784E+03  1.03297E+01 -1.00000E+00  1.94136E-01
      21    -1     0     0   511   501  0.000000000E+00  0.000000000E+00  6.950621863E-01  6.950621863E-01  0.000000000E+00  0.00000E+00  9.000E+00
       2    -1     0     0   501     0  0.000000000E+00  0.000000000E+00 -7.348800026E+02  7.348800026E+02  0.000000000E+00  0.00000E+00  9.000E+00
      23     2     1     2     0     0 -9.031142655E+00  5.014006401E+00 -6.803870637E+02  6.807944721E+02  2.116258426E+01  0.00000E+00  9.000E+00
      11     1     3     3     0     0 -5.833294508E+00 -4.015966281E+00 -5.538650675E+02  5.539103432E+02  5.109989100E-04  0.00000E+00  9.000E+00
     -11     1     3     3     0     0 -3.197848147E+00  9.029972682E+00 -1.265219962E+02  1.268841289E+02  5.109989100E-04  0.00000E+00  9.000E+00
       2     1     1     2   511     0  9.031142655E+00 -5.014006401E+00 -5.379787670E+01  5.478059269E+01  0.000000000E+00  0.00000E+00  9.000E+00
#rwgt            1           4   93686.322229621204         54217137       19443           0
#pdf  -2  2 0.45765232E-04 0.15290502E+00 0.21162584E+02 0.28949821E+01 0.61762559E+00
</event>
<event>
      5  10011  2.10784E+03  1.00000E+01 -1.00000E+00  1.86315E-01
      -2    -1     0     0     0   501  0.000000000E+00  0.000000000E+00  3.316380531E+02  3.316380531E+02  0.000000000E+00  0.00000E+00  9.000E+00
       2    -1     0     0   501     0  0.000000000E+00  0.000000000E+00 -6.388278113E+00  6.388278113E+00  0.000000000E+00  0.00000E+00  9.000E+00
      23     2     1     2     0     0  0.000000000E+00  0.000000000E+00  3.252497749E+02  3.380263312E+02  9.205642000E+01  0.00000E+00  9.000E+00
      11     1     3     3     0     0  3.932934967E+01  2.365705719E+01  1.754199330E+02  1.813245902E+02  5.109989100E-04  0.00000E+00  9.000E+00
     -11     1     3     3     0     0 -3.932934967E+01 -2.365705719E+01  1.498298419E+02  1.567017410E+02  5.109989100E-04  0.00000E+00  9.000E+00
#rwgt            1           4   789.33863523786556         54217137       19517           0
#pdf  -2  2 0.82909513E-01 0.15970695E-02 0.92056420E+02 0.13891883E+00 0.13707346E+01
</event>
<event>
      6  10011  2.10784E+03  1.27731E+01 -1.00000E+00  1.84215E-01
      -5    -1     0     0     0   501  0.000000000E+00  0.000000000E+00  5.156410237E+01  5.156410237E+01  0.000000000E+00  0.00000E+00  9.000E+00
      21    -1     0     0   501   511  0.000000000E+00  0.000000000E+00 -7.219680271E+01  7.219680271E+01  0.000000000E+00  0.00000E+00  9.000E+00
      23     2     1     2     0     0  5.462483900E+00 -1.154610762E+01  1.064698701E+01  8.997377480E+01  8.842381177E+01  0.00000E+00  9.000E+00
      11     1     3     3     0     0 -2.591298815E+01  5.212182805E+00 -2.727423520E+01  3.798070182E+01  5.109989100E-04  0.00000E+00  9.000E+00
     -11     1     3     3     0     0  3.137547205E+01 -1.675829043E+01  3.792122221E+01  5.199307299E+01  5.109989100E-04  0.00000E+00  9.000E+00
      -5     1     1     2     0   511 -5.462483900E+00  1.154610762E+01 -3.127968735E+01  3.378713028E+01  0.000000000E+00  0.00000E+00  9.000E+00
#rwgt            1           1   330.88090583822566         54217137       19660           0
#pdf  -5  5 0.12448388E-01 0.98139848E-02 0.88423812E+02 0.19792877E+00 0.23716796E+00
</event>
<event>
      5  10011  2.10784E+03  1.00000E+01 -1.00000E+00  1.92406E-01
       3    -1     0     0   501     0  0.000000000E+00  0.000000000E+00  1.166437506E+00  1.166437506E+00  0.000000000E+00  0.00000E+00  9.000E+00
      -3    -1     0     0     0   501  0.000000000E+00  0.000000000E+00 -1.442468476E+02  1.442468476E+02  0.000000000E+00  0.00000E+00  9.000E+00
      23     2     1     2     0     0  0.000000000E+00  0.000000000E+00 -1.430804100E+02  1.454132851E+02  2.594262385E+01  0.00000E+00  9.000E+00
      11     1     3     3     0     0  1.906702714E+00 -1.095732439E+01 -3.412522430E+01  3.589191283E+01  5.109989100E-04  0.00000E+00  9.000E+00
     -11     1     3     3     0     0 -1.906702714E+00  1.095732439E+01 -1.089551858E+02  1.095213722E+02  5.109989100E-04  0.00000E+00  9.000E+00
#rwgt            1           8   3955.5952256418082         54217137       19816           0
#pdf   3 -3 0.29160938E-03 0.36061712E-01 0.25942624E+02 0.16738817E+01 0.18817520E+00
</event>
<event>
      6  10011  2.10784E+03  1.53865E+01 -1.00000E+00  1.76343E-01
      -4    -1     0     0     0   501  0.000000000E+00  0.000000000E+00  9.189845280E+00  9.189845280E+00  0.000000000E+00  0.00000E+00  9.000E+00
      21    -1     0     0   501   511  0.000000000E+00  0.000000000E+00 -4.870582072E+02  4.870582072E+02  0.000000000E+00  0.00000E+00  9.000E+00
      23     2     1     2     0     0  1.508010507E+01 -3.055452655E+00 -2.191364832E+02  2.370590666E+02  8.910363295E+01  0.00000E+00  9.000E+00
      11     1     3     3     0     0 -3.748087297E+01  9.274713189E-01 -8.305629518E+01  9.112641885E+01  5.109989100E-04  0.00000E+00  9.000E+00
     -11     1     3     3     0     0  5.256097805E+01 -3.982923974E+00 -1.360801880E+02  1.459326477E+02  5.109989100E-04  0.00000E+00  9.000E+00
      -4     1     1     2     0   511 -1.508010507E+01  3.055452655E+00 -2.587318788E+02  2.591889860E+02  0.000000000E+00  0.00000E+00  9.000E+00
#rwgt            1           2   92.588582618524271         54217137       19877           0
#pdf  -4  4 0.22076499E-02 0.56192796E-01 0.89103633E+02 0.83529168E+00 0.68472436E-01
</event>
<event>
      6  10011  2.10784E+03  2.45375E+01 -1.00000E+00  1.59356E-01
      21    -1     0     0   511   501  0.000000000E+00  0.000000000E+00  7.248453499E+00  7.248453499E+00  0.000000000E+00  0.00000E+00  9.000E+00
       2    -1     0     0   501     0  0.000000000E+00  0.000000000E+00 -6.544795437E+02  6.544795437E+02  0.000000000E+00  0.00000E+00  9.000E+00
      23     2     1     2     0     0  1.737459450E+01 -1.732665816E+01 -1.134305733E+02  1.273638129E+02  5.246862167E+01  0.00000E+00  9.000E+00
      11     1     3     3     0     0  2.165412641E+00  6.667973853E+00  2.920484312E+00  7.594742661E+00  5.109989100E-04  0.00000E+00  9.000E+00
     -11     1     3     3     0     0  1.520918186E+01 -2.399463201E+01 -1.163510576E+02  1.197690702E+02  5.109989100E-04  0.00000E+00  9.000E+00
       2     1     1     2   511     0 -1.737459450E+01  1.732665816E+01 -5.338005169E+02  5.343641843E+02  0.000000000E+00  0.00000E+00  9.000E+00
#rwgt            1           4   587.56566991836837         54217137       19964           0
#pdf  -2  2 0.15776568E-02 0.27265081E-01 0.52468622E+02 0.11781782E+01 0.69104424E+00
</event>
<event>
      6  10011  2.10784E+03  2.11947E+01 -1.00000E+00  1.64312E-01
      21    -1     0     0   511   501  0.000000000E+00  0.000000000E+00  2.897049644E+00  2.897049644E+00  0.000000000E+00  0.00000E+00  9.000E+00
       2    -1     0     0   501     0  0.000000000E+00  0.000000000E+00 -1.378402286E+03  1.378402286E+03  0.000000000E+00  0.00000E+00  9.000E+00
      23     2     1     2     0     0  4.664929594E+00 -2.067491410E+01 -1.336297476E+03  1.336729591E+03  2.656769406E+01  0.00000E+00  9.000E+00
      11     1     3     3     0     0  1.781538259E+00 -1.876364176E+01 -1.316312065E+03  1.316446999E+03  5.109989100E-04  0.00000E+00  9.000E+00
     -11     1     3     3     0     0  2.883391335E+00 -1.911272338E+00 -1.998541021E+01  2.028259178E+01  5.109989100E-04  0.00000E+00  9.000E+00
       2     1     1     2   511     0 -4.664929594E+00  2.067491410E+01 -3.920776095E+01  4.456974489E+01  0.000000000E+00  0.00000E+00  9.000E+00
#rwgt            1           4   34210.618425903558         54217137       20053           0
#pdf  -2  2 0.42224259E-04 0.26119551E+00 0.26567694E+02 0.32245439E+01 0.48175168E+00
</event>
<event>
      6  10011  2.10784E+03  1.95447E+01 -1.00000E+00  1.67193E-01
      21    -1     0     0   511   501  0.000000000E+00  0.000000000E+00  1.088262705E+01  1.088262705E+01  0.000000000E+00  0.00000E+00  9.000E+00
       2    -1     0     0   501     0  0.000000000E+00  0.000000000E+00 -3.011736825E+02  3.011736825E+02  0.000000000E+00  0.00000E+00  9.000E+00
      23     2     1     2     0     0 -4.431701011E+00 -1.903563052E+01 -2.373627876E+02  2.556347114E+02  9.287635606E+01  0.00000E+00  9.000E+00
      11     1     3     3     0     0 -4.747803751E+00 -5.657572671E+01 -1.565687085E+02  1.665446335E+02  5.109989100E-04  0.00000E+00  9.000E+00
     -11     1     3     3     0     0  3.161027396E-01  3.754009618E+01 -8.079407914E+01  8.909007782E+01  5.109989100E-04  0.00000E+00  9.000E+00
       2     1     1     2   511     0  4.431701011E+00  1.903563052E+01 -5.292826787E+01  5.642159820E+01  0.000000000E+00  0.00000E+00  9.000E+00
#rwgt            1           4   679.29357446605832         54217137       20086           0
#pdf  -2  2 0.22350383E-02 0.60303900E-01 0.92876356E+02 0.11155995E+01 0.66032386E+00
</event>
<event>
      5  10011  2.10784E+03  1.00000E+01 -1.00000E+00  1.91930E-01
      -2    -1     0     0     0   501  0.000000000E+00  0.000000000E+00  1.417366186E+01  1.417366186E+01  0.000000000E+00  0.00000E+00  9.000E+00
       2    -1     0     0   501     0  0.000000000E+00  0.000000000E+00 -1.351466879E+01  1.351466879E+01  0.000000000E+00  0.00000E+00  9.000E+00
      23     2     1     2     0     0  0.000000000E+00  0.000000000E+00  6.589930725E-01  2.768833065E+01  2.768048739E+01  0.00000E+00  9.000E+00
      11     1     3     3     0     0  2.074919270E+00  1.230759543E+01  6.312006364E+00  1.398655139E+01  5.109989100E-04  0.00000E+00  9.000E+00
     -11     1     3     3     0     0 -2.074919270E+00 -1.230759543E+01 -5.653013291E+00  1.370177925E+01  5.109989100E-04  0.00000E+00  9.000E+00
#rwgt            1           4   10848.256563906019         54217137       20201           0
#pdf  -2  2 0.35434155E-02 0.33786672E-02 0.27680487E+02 0.77959770E+00 0.91959624E+00
</event>
<event>
      5  10011  2.10784E+03  1.00000E+01 -1.00000E+00  1.71360E-01
      -2    -1     0     0     0   501  0.000000000E+00  0.000000000E+00  4.708027531E+02  4.708027531E+02  0.000000000E+00  0.00000E+00  9.000E+00
       2    -1     0     0   501     0  0.000000000E+00  0.000000000E+00 -2.395653796E-01  2.395653796E-01  0.000000000E+00  0.00000E+00  9.000E+00
      23     2     1     2     0     0  0.000000000E+00  0.000000000E+00  4.705631878E+02  4.710423185E+02  2.124034277E+01  0.00000E+00  9.000E+00
      11     1     3     3     0     0  4.276081670E+00 -5.101642999E+00  5.176773034E+01  5.219396077E+01  5.109989100E-04  0.00000E+00  9.000E+00
     -11     1     3     3     0     0 -4.276081670E+00  5.101642999E+00  4.187954574E+02  4.188483578E+02  5.109989100E-04  0.00000E+00  9.000E+00
#rwgt            1           4   10361.369556273572         54217137       20260           0
#pdf  -2  2 0.11770069E+00 0.59891345E-04 0.21240343E+02 0.10323551E+00 0.27021443E+01
</event>
<event>
      5  10011  2.10784E+03  1.00000E+01 -1.00000E+00  1.57206E-01
       2    -1     0     0   501     0  0.000000000E+00  0.000000000E+00  8.564198071E+02  8.564198071E+02  0.000000000E+00  0.00000E+00  9.000E+00
      -2    -1     0     0     0   501  0.000000000E+00  0.000000000E+00 -1.299381710E-01  1.299381710E-01  0.000000000E+00  0.00000E+00  9.000E+00
      23     2     1     2     0     0  0.000000000E+00  0.000000000E+00  8.562898689E+02  8.565497453E+02  2.109802108E+01  0.00000E+00  9.000E+00
      11     1     3     3     0     0  9.725741882E+00 -2.957913748E+00  3.137295566E+02  3.138942083E+02  5.109989100E-04  0.00000E+00  9.000E+00
     -11     1     3     3     0     0 -9.725741882E+00  2.957913748E+00  5.425603124E+02  5.426555370E+02  5.109989100E-04  0.00000E+00  9.000E+00
#rwgt            1           7   34022.451851270169         54217137       20326           0
#pdf   2 -2 0.21410495E+00 0.32484543E-04 0.21098021E+02 0.55498566E+00 0.31732048E+01
</event>
<event>
      6  10011  2.10784E+03  1.75455E+01 -1.00000E+00  1.71196E-01
      21    -1     0     0   511   501  0.000000000E+00  0.000000000E+00  9.818884782E+00  9.818884782E+00  0.000000000E+00  0.00000E+00  9.000E+00
       2    -1     0     0   501     0  0.000000000E+00  0.000000000E+00 -3.794248389E+02  3.794248389E+02  0.000000000E+00  0.00000E+00  9.000E+00
      23     2     1     2     0     0  1.111913881E+01  1.357241379E+01 -3.531852717E+02  3.652128170E+02  9.128373301E+01  0.00000E+00  9.000E+00
      11     1     3     3     0     0  1.457524692E+01 -1.876674112E+01 -3.111917998E+02  3.120976845E+02  5.109989100E-04  0.00000E+00  9.000E+00
     -11     1     3     3     0     0 -3.456108107E+00  3.233915490E+01 -4.199347190E+01  5.311513255E+01  5.109989100E-04  0.00000E+00  9.000E+00
       2     1     1     2   511     0 -1.111913881E+01 -1.357241379E+01 -1.642068244E+01  2.403090667E+01  0.000000000E+00  0.00000E+00  9.000E+00
#rwgt            1           4   2411.0338204906980         54217137       20439           0
#pdf  -2  2 0.14764180E-02 0.88185562E-01 0.91283733E+02 0.13182761E+01 0.63698589E+00
</event>
<event>
      5  10011  2.10784E+03  1.00000E+01 -1.00000E+00  1.13887E-01
       2    -1     0     0   501     0  0.000000000E+00  0.000000000E+00  5.416316848E+02  5.416316848E+02  0.000000000E+00  0.00000E+00  9.000E+00
      -2    -1     0     0     0   501  0.000000000E+00  0.000000000E+00 -3.227039412E-01  3.227039412E-01  0.000000000E+00  0.00000E+00  9.000E+00
      23     2     1     2     0     0  0.000000000E+00  0.000000000E+00  5.413089808E+02  5.419543887E+02  2.644138267E+01  0.00000E+00  9.000E+00
      11     1     3     3     0     0  5.010101542E+00  9.993652044E+00  1.259947571E+02  1.264897348E+02  5.109989100E-04  0.00000E+00  9.000E+00
     -11     1     3     3     0     0 -5.010101542E+00 -9.993652044E+00  4.153142238E+02  4.154646539E+02  5.109989100E-04  0.00000E+00  9.000E+00
#rwgt            1           7   13327.198254665913         54217137       20512           0
#pdf   2 -2 0.13540792E+00 0.80675985E-04 0.26441383E+02 0.62484561E+00 0.26737433E+01
</event>
<event>
      6  10011  2.10784E+03  2.31062E+01 -1.00000E+00  1.61352E-01
      -2    -1     0     0     0   511  0.000000000E+00  0.000000000E+00  1.312816006E+00  1.312816006E+00  0.000000000E+00  0.00000E+00  9.000E+00
       2    -1     0     0   501     0  0.000000000E+00  0.000000000E+00 -1.343021499E+03  1.343021499E+03  0.000000000E+00  0.00000E+00  9.000E+00
      23     2     1     2     0     0  1.350979876E+01 -1.874512739E+01 -1.223287041E+03  1.223679519E+03  2.065155020E+01  0.00000E+00  9.000E+00
      11     1     3     3     0     0 -6.469478519E-01 -6.982293417E+00 -1.016983071E+02  1.019397696E+02  5.109989100E-04  0.00000E+00  9.000E+00
     -11     1     3     3     0     0  1.415674661E+01 -1.176283397E+01 -1.121588734E+03  1.121739750E+03  5.109989100E-04  0.00000E+00  9.000E+00
      21     1     1     2   501   511 -1.350979876E+01  1.874512739E+01 -1.184216422E+02  1.206547960E+02  1.348699152E-06  0.00000E+00  9.000E+00
#rwgt            1           4   154074.75182242069         54217137       20622           0
#pdf  -2  2 0.32693123E-04 0.20383039E+00 0.20651550E+02 0.31405866E+01 0.56795582E+00
</event>
<event>
      6  10011  2.10784E+03  1.12789E+01 -1.00000E+00  1.89896E-01
       4    -1     0     0   501     0  0.000000000E+00  0.000000000E+00  7.198147133E+01  7.198147133E+01  0.000000000E+00  0.00000E+00  9.000E+00
      21    -1     0     0   511   501  0.000000000E+00  0.000000000E+00 -4.487743903E+00  4.487743903E+00  0.000000000E+00  0.00000E+00  9.000E+00
      23     2     1     2     0     0  1.102461583E+01  2.381375801E+00  4.463517712E+01  5.097948344E+01  2.189510425E+01  0.00000E+00  9.000E+00
      11     1     3     3     0     0  1.564962408E+01  2.887651176E+00  1.836582313E+01  2.430129056E+01  5.109989100E-04  0.00000E+00  9.000E+00
     -11     1     3     3     0     0 -4.625008256E+00 -5.062753750E-01  2.626935399E+01  2.667819288E+01  5.109989100E-04  0.00000E+00  9.000E+00
       4     1     1     2   511     0 -1.102461583E+01 -2.381375801E+00  2.285855031E+01  2.548973180E+01  0.000000000E+00  0.00000E+00  9.000E+00
#rwgt            1           9   37869.957683431225         54217137       20677           0
#pdf   4 -4 0.10624958E-01 0.70499633E-03 0.21895104E+02 0.26767137E+00 0.95214073E+00
</event>
<event>
      5  10011  2.10784E+03  1.00000E+01 -1.00000E+00  1.92149E-01
       2    -1     0     0   501     0  0.000000000E+00  0.000000000E+00  1.886656014E+01  1.886656014E+01  0.000000000E+00  0.00000E+00  9.000E+00
      -2    -1     0     0     0   501  0.000000000E+00  0.000000000E+00 -1.348454821E+01  1.348454821E+01  0.000000000E+00  0.00000E+00  9.000E+00
      23     2     1     2     0     0  0.000000000E+00  0.000000000E+00  5.382011934E+00  3.235110835E+01  3.190028462E+01  0.00000E+00  9.000E+00
      11     1     3     3     0     0  8.175072447E+00  1.195957094E+01  9.459447637E+00  1.730156919E+01  5.109989100E-04  0.00000E+00  9.000E+00
     -11     1     3     3     0     0 -8.175072447E+00 -1.195957094E+01 -4.077435703E+00  1.504953916E+01  5.109989100E-04  0.00000E+00  9.000E+00
#rwgt            1           7   4757.5141802343260         54217137       20729           0
#pdf   2 -2 0.47166400E-02 0.33711371E-02 0.31900285E+02 0.86632350E+00 0.81275289E+00
</event>
<event>
      5  10011  2.10784E+03  1.00000E+01 -1.00000E+00  1.72623E-01
       2    -1     0     0   501     0  0.000000000E+00  0.000000000E+00  6.296760714E+02  6.296760714E+02  0.000000000E+00  0.00000E+00  9.000E+00
      -2    -1     0     0     0   501  0.000000000E+00  0.000000000E+00 -8.871101806E-01  8.871101806E-01  0.000000000E+00  0.00000E+00  9.000E+00
      23     2     1     2     0     0  0.000000000E+00  0.000000000E+00  6.287889612E+02  6.305631816E+02  4.726910422E+01  0.00000E+00  9.000E+00
      11     1     3     3     0     0 -5.265083913E+00 -1.485070230E+01  7.939796225E+01  8.094628390E+01  5.109989100E-04  0.00000E+00  9.000E+00
     -11     1     3     3     0     0  5.265083913E+00  1.485070230E+01  5.493909990E+02  5.496168977E+02  5.109989100E-04  0.00000E+00  9.000E+00
#rwgt            1           7   1338.2086661292931         54217137       20777           0
#pdf   2 -2 0.15741902E+00 0.22177755E-03 0.47269104E+02 0.58650369E+00 0.23133409E+01
</event>
<event>
      5  10011  2.10784E+03  1.00000E+01 -1.00000E+00  1.92013E-01
       2    -1     0     0   501     0  0.000000000E+00  0.000000000E+00  1.311319786E+02  1.311319786E+02  0.000000000E+00  0.00000E+00  9.000E+00
      -2    -1     0     0     0   501  0.000000000E+00  0.000000000E+00 -1.568972939E+01  1.568972939E+01  0.000000000E+00  0.00000E+00  9.000E+00
      23     2     1     2     0     0  0.000000000E+00  0.000000000E+00  1.154422493E+02  1.468217080E+02  9.071769969E+01  0.00000E+00  9.000E+00
      11     1     3     3     0     0 -7.343857181E+00 -1.121363748E+01 -1.241097195E+01  1.826773464E+01  5.109989100E-04  0.00000E+00  9.000E+00
     -11     1     3     3     0     0  7.343857181E+00  1.121363748E+01  1.278532212E+02  1.285539734E+02  5.109989100E-04  0.00000E+00  9.000E+00
#rwgt            1           7   933.24055103297235         54217137       20809           0
#pdf   2 -2 0.32782995E-01 0.39224323E-02 0.90717700E+02 0.68991399E+00 0.87555877E+00
</event>
<event>
      6  10011  2.10784E+03  1.38595E+01 -1.00000E+00  1.80675E-01
       2    -1     0     0   501     0  0.000000000E+00  0.000000000E+00  9.917659633E+02  9.917659633E+02  0.000000000E+00  0.00000E+00  9.000E+00
      21    -1     0     0   511   501  0.000000000E+00  0.000000000E+00 -3.410762831E+00  3.410762831E+00  0.000000000E+00  0.00000E+00  9.000E+00
      23     2     1     2     0     0 -5.583792946E+00  1.268495730E+01  9.486489674E+02  9.531211459E+02  9.117548187E+01  0.00000E+00  9.000E+00
      11     1     3     3     0     0  2.160538252E+01  1.052882643E+01  8.608029614E+02  8.611384250E+02  5.109989100E-04  0.00000E+00  9.000E+00
     -11     1     3     3     0     0 -2.718917546E+01  2.156130871E+00  8.784600613E+01  9.198272096E+01  5.109989100E-04  0.00000E+00  9.000E+00
       2     1     1     2   511     0  5.583792946E+00 -1.268495730E+01  3.970623303E+01  4.205558021E+01  0.000000000E+00  0.00000E+00  9.000E+00
#rwgt            1           7   1898.0785995409169         54217137       20856           0
#pdf   2 -2 0.23502146E+00 0.55267349E-03 0.91175482E+02 0.46494155E+00 0.19292500E+01
</event>
<event>
      5  10011  2.10784E+03  1.00000E+01 -1.00000E+00  1.90685E-01
       2    -1     0     0   501     0  0.000000000E+00  0.000000000E+00  7.382778674E+02  7.382778674E+02  0.000000000E+00  0.00000E+00  9.000E+00
      -2    -1     0     0     0   501  0.000000000E+00  0.000000000E+00 -2.655004631E+00  2.655004631E+00  0.000000000E+00  0.00000E+00  9.000E+00
      23     2     1     2     0     0  0.000000000E+00  0.000000000E+00  7.356228628E+02  7.409328721E+02  8.854673698E+01  0.00000E+00  9.000E+00
      11     1     3     3     0     0 -2.317173313E+01 -1.825144054E+01  6.440834199E+02  6.447584788E+02  5.109989100E-04  0.00000E+00  9.000E+00
     -11     1     3     3     0     0  2.317173313E+01  1.825144054E+01  9.153944299E+01  9.617439327E+01  5.109989100E-04  0.00000E+00  9.000E+00
#rwgt            1           7   1088.6461524519259         54217137       20916           0
#pdf   2 -2 0.18456947E+00 0.66375116E-03 0.88546737E+02 0.53428221E+00 0.17911955E+01
</event>
<event>
      5  10011  2.10784E+03  1.00000E+01 -1.00000E+00  1.58759E-01
      -3    -1     0     0     0   501  0.000000000E+00  0.000000000E+00  4.780722484E+01  4.780722484E+01  0.000000000E+00  0.00000E+00  9.000E+00
       3    -1     0     0   501     0  0.000000000E+00  0.000000000E+00 -4.924909194E+01  4.924909194E+01  0.000000000E+00  0.00000E+00  9.000E+00
      23     2     1     2     0     0  0.000000000E+00  0.000000000E+00 -1.441867098E+00  9.705631678E+01  9.704560601E+01  0.00000E+00  9.000E+00
      11     1     3     3     0     0  4.495789082E+01  1.139796439E+01 -1.498213120E+01  4.874002252E+01  5.109989100E-04  0.00000E+00  9.000E+00
     -11     1     3     3     0     0 -4.495789082E+01 -1.139796439E+01  1.354026410E+01  4.831629427E+01  5.109989100E-04  0.00000E+00  9.000E+00
#rwgt            1           3   1813.5246066368959         54217137       20974           0
#pdf  -3  3 0.11951806E-01 0.12312273E-01 0.97045606E+02 0.43491289E+00 0.42717192E+00
</event>
<event>
      6  10011  2.10784E+03  3.13561E+01 -1.00000E+00  1.51714E-01
       3    -1     0     0   501     0  0.000000000E+00  0.000000000E+00  2.512077567E+01  2.512077567E+01  0.000000000E+00  0.00000E+00  9.000E+00
      21    -1     0     0   511   501  0.000000000E+00  0.000000000E+00 -2.598574094E+02  2.598574094E+02  0.000000000E+00  0.00000E+00  9.000E+00
      23     2     1     2     0     0  3.048797642E+01 -7.327110502E+00 -6.862213163E+01  1.159301710E+02  8.802047684E+01  0.00000E+00  9.000E+00
      11     1     3     3     0     0  5.493241772E+01 -3.504130821E+00 -7.235077343E+01  9.090920672E+01  5.109989100E-04  0.00000E+00  9.000E+00
     -11     1     3     3     0     0 -2.444444130E+01 -3.822979681E+00  3.728641802E+00  2.502096429E+01  5.109989100E-04  0.00000E+00  9.000E+00
       3     1     1     2   511     0 -3.048797642E+01  7.327110502E+00 -1.661145021E+02  1.690480141E+02  0.000000000E+00  0.00000E+00  9.000E+00
#rwgt            1           8   637.66314296182543         54217137       21120           0
#pdf   3 -3 0.55705935E-02 0.21731314E-01 0.88020477E+02 0.65702378E+00 0.29227364E+00
</event>
<event>
      5  10011  2.10784E+03  1.00000E+01 -1.00000E+00  1.28862E-01
       2    -1     0     0   501     0  0.000000000E+00  0.000000000E+00  3.849711534E+02  3.849711534E+02  0.000000000E+00  0.00000E+00  9.000E+00
      -2    -1     0     0     0   501  0.000000000E+00  0.000000000E+00 -4.158137863E-01  4.158137863E-01  0.000000000E+00  0.00000E+00  9.000E+00
      23     2     1     2     0     0  0.000000000E+00  0.000000000E+00  3.845553397E+02  3.853869672E+02  2.530425363E+01  0.00000E+00  9.000E+00
      11     1     3     3     0     0  6.748181190E+00  1.070067518E+01  1.894729277E+02  1.898947938E+02  5.109989100E-04  0.00000E+00  9.000E+00
     -11     1     3     3     0     0 -6.748181190E+00 -1.070067518E+01  1.950824120E+02  1.954921734E+02  5.109989100E-04  0.00000E+00  9.000E+00
#rwgt            1           7   58234.539998502842         54217137       21283           0
#pdf   2 -2 0.96242788E-01 0.10395345E-03 0.25304254E+02 0.65141597E+00 0.24463604E+01
</event>
<event>
      6  10011  2.10784E+03  1.81854E+01 -1.00000E+00  1.69846E-01
      -3    -1     0     0     0   501  0.000000000E+00  0.000000000E+00  9.470289353E+01  9.470289353E+01  0.000000000E+00  0.00000E+00  9.000E+00
      21    -1     0     0   501   511  0.000000000E+00  0.000000000E+00 -4.447860736E+01  4.447860736E+01  0.000000000E+00  0.00000E+00  9.000E+00
      23     2     1     2     0     0  1.200409889E+00  1.814575778E+01  6.676571803E+01  1.145984076E+02  9.134782101E+01  0.00000E+00  9.000E+00
      11     1     3     3     0     0 -9.581058238E+00  6.124231613E+00 -2.179206567E+01  2.458041936E+01  5.109989100E-04  0.00000E+00  9.000E+00
     -11     1     3     3     0     0  1.078146813E+01  1.202152617E+01  8.855778370E+01  9.001798821E+01  5.109989100E-04  0.00000E+00  9.000E+00
      -3     1     1     2     0   511 -1.200409889E+00 -1.814575778E+01 -1.654143186E+01  2.458309332E+01  0.000000000E+00  0.00000E+00  9.000E+00
#rwgt            1           3   1903.3283462684606         54217137       21536           0
#pdf  -3  3 0.22234199E-01 0.58640128E-02 0.91347821E+02 0.28799058E+00 0.64263413E+00
</event>
<event>
      6  10011  2.10784E+03  4.98978E+01 -1.00000E+00  1.39123E-01
      -1    -1     0     0     0   511  0.000000000E+00  0.000000000E+00  1.040421593E+01  1.040421593E+01  0.000000000E+00  0.00000E+00  9.000E+00
       1    -1     0     0   501     0  0.000000000E+00  0.000000000E+00 -5.816437937E+02  5.816437937E+02  0.000000000E+00  0.00000E+00  9.000E+00
      23     2     1     2     0     0 -4.679302827E+01  1.732636349E+01 -4.212897105E+02  4.340139846E+02  9.161510963E+01  0.00000E+00  9.000E+00
      11     1     3     3     0     0 -1.866234241E+01 -3.737888101E+01 -2.010470182E+02  2.053420738E+02  5.109989100E-04  0.00000E+00  9.000E+00
     -11     1     3     3     0     0 -2.813068586E+01  5.470524450E+01 -2.202426923E+02  2.286719108E+02  5.109989100E-04  0.00000E+00  9.000E+00
      21     1     1     2   501   511  4.679302827E+01 -1.732636349E+01 -1.499498673E+02  1.580340251E+02  1.907348633E-06  0.00000E+00  9.000E+00
#rwgt            1           5   2126.0980563974335         54217137       21619           0
#pdf  -1  1 0.13967975E-02 0.93890312E-01 0.91615110E+02 0.13394003E+01 0.36081671E+00
</event>
<event>
      6  10011  2.10784E+03  1.08796E+01 -1.00000E+00  1.91611E-01
      21    -1     0     0   511   501  0.000000000E+00  0.000000000E+00  1.367112347E+01  1.367112347E+01  0.000000000E+00  0.00000E+00  9.000E+00
       1    -1     0     0   501     0  0.000000000E+00  0.000000000E+00 -2.051999010E+02  2.051999010E+02  0.000000000E+00  0.00000E+00  9.000E+00
      23     2     1     2     0     0 -5.393929083E-01 -1.086626420E+01 -1.503077086E+02  1.762383707E+02  9.137389892E+01  0.00000E+00  9.000E+00
      11     1     3     3     0     0  2.491522445E+01  2.949665828E+01 -9.852906833E+01  1.058243760E+02  5.109989100E-04  0.00000E+00  9.000E+00
     -11     1     3     3     0     0 -2.545461735E+01 -4.036292249E+01 -5.177864024E+01  7.041399465E+01  5.109989100E-04  0.00000E+00  9.000E+00
       1     1     1     2   511     0  5.393929083E-01  1.086626420E+01 -4.122106899E+01  4.263265381E+01  0.000000000E+00  0.00000E+00  9.000E+00
#rwgt            1           5   376.20765691202018         54217137       21730           0
#pdf  -1  1 0.32185980E-02 0.40531960E-01 0.91373899E+02 0.93934783E+00 0.45112124E+00
</event>
<event>
      6  10011  2.10784E+03  1.84411E+01 -1.00000E+00  1.69325E-01
      -2    -1     0     0     0   511  0.000000000E+00  0.000000000E+00  1.023955041E+01  1.023955041E+01  0.000000000E+00  0.00000E+00  9.000E+00
       2    -1     0     0   501     0  0.000000000E+00  0.000000000E+00 -5.649383161E+02  5.649383161E+02  0.000000000E+00  0.00000E+00  9.000E+00
      23     2     1     2     0     0  1.712358220E+01  6.845117840E+00 -5.474056543E+02  5.553470274E+02  9.174583243E+01  0.00000E+00  9.000E+00
      11     1     3     3     0     0 -1.388706854E+01 -3.634108933E+01 -2.817600798E+02  2.844332400E+02  5.109989100E-04  0.00000E+00  9.000E+00
     -11     1     3     3     0     0  3.101065074E+01  4.318620717E+01 -2.656455746E+02  2.709137875E+02  5.109989100E-04  0.00000E+00  9.000E+00
      21     1     1     2   501   511 -1.712358220E+01 -6.845117840E+00 -7.293111361E+00  1.983083909E+01  7.633118912E-07  0.00000E+00  9.000E+00
#rwgt            1           4   955.07856222301916         54217137       21783           0
#pdf  -2  2 0.97320672E-03 0.13514115E+00 0.91745832E+02 0.15556705E+01 0.59139372E+00
</event>
<event>
      6  10011  2.10784E+03  1.14693E+01 -1.00000E+00  1.89111E-01
       2    -1     0     0   511     0  0.000000000E+00  0.000000000E+00  4.543673825E+02  4.543673825E+02  0.000000000E+00  0.00000E+00  9.000E+00
      -2    -1     0     0     0   501  0.000000000E+00  0.000000000E+00 -1.173800421E+01  1.173800421E+01  0.000000000E+00  0.00000E+00  9.000E+00
      23     2     1     2     0     0  1.140983997E+01 -1.166746807E+00  1.752389382E+02  1.984690790E+02  9.246482640E+01  0.00000E+00  9.000E+00
      11     1     3     3     0     0 -2.218214808E+01  2.146655886E+01  1.441233571E+02  1.473920042E+02  5.109989100E-04  0.00000E+00  9.000E+00
     -11     1     3     3     0     0  3.359198805E+01 -2.263330567E+01  3.111558116E+01  5.107707488E+01  5.109989100E-04  0.00000E+00  9.000E+00
      21     1     1     2   511   501 -1.140983997E+01  1.166746807E+00  2.673904401E+02  2.676363077E+02  6.607249480E-06  0.00000E+00  9.000E+00
#rwgt            1           7   580.32525162212266         54217137       21910           0
#pdf   2 -2 0.46358231E-01 0.28816835E-02 0.92464826E+02 0.67296277E+00 0.10020806E+01
</event>
<event>
      6  10011  2.10784E+03  1.62624E+01 -1.00000E+00  1.74135E-01
      -1    -1     0     0     0   501  0.000000000E+00  0.000000000E+00  6.832599469E+01  6.832599469E+01  0.000000000E+00  0.00000E+00  9.000E+00
       1    -1     0     0   511     0  0.000000000E+00  0.000000000E+00 -1.022765475E+02  1.022765475E+02  0.000000000E+00  0.00000E+00  9.000E+00
      23     2     1     2     0     0  5.895045327E+00  1.515631206E+01  3.557733394E+01  9.919811382E+01  9.115949616E+01  0.00000E+00  9.000E+00
      11     1     3     3     0     0 -3.775086438E+01 -3.593175149E+00 -2.949234718E+00  3.803599157E+01  5.109989100E-04  0.00000E+00  9.000E+00
     -11     1     3     3     0     0  4.364590971E+01  1.874948721E+01  3.852656867E+01  6.116212225E+01  5.109989100E-04  0.00000E+00  9.000E+00
      21     1     1     2   511   501 -5.895045327E+00 -1.515631206E+01 -6.952788672E+01  7.140442834E+01  0.000000000E+00  0.00000E+00  9.000E+00
#rwgt            1           5   483.22011338803912         54217137       22209           0
#pdf  -1  1 0.16585090E-01 0.78289953E-02 0.91159496E+02 0.40323020E+00 0.72998983E+00
</event>
<event>
      5  10011  2.10784E+03  1.00000E+01 -1.00000E+00  1.51989E-01
       1    -1     0     0   501     0  0.000000000E+00  0.000000000E+00  6.066895934E-01  6.066895934E-01  0.000000000E+00  0.00000E+00  9.000E+00
      -1    -1     0     0     0   501  0.000000000E+00  0.000000000E+00 -1.811659415E+02  1.811659415E+02  0.000000000E+00  0.00000E+00  9.000E+00
      23     2     1     2     0     0  0.000000000E+00  0.000000000E+00 -1.805592519E+02  1.817726311E+02  2.096773630E+01  0.00000E+00  9.000E+00
      11     1     3     3     0     0  6.275897628E-01  4.723740054E+00 -1.712348552E+02  1.713011477E+02  5.109989100E-04  0.00000E+00  9.000E+00
     -11     1     3     3     0     0 -6.275897628E-01 -4.723740054E+00 -9.324396732E+00  1.047148336E+01  5.109989100E-04  0.00000E+00  9.000E+00
#rwgt            1           6   4293.1498231469686         54217137       22342           0
#pdf   1 -1 0.15167240E-03 0.45291485E-01 0.20967736E+02 0.20638085E+01 0.19020494E+00
</event>
<event>
      6  10011  2.10784E+03  1.85351E+01 -1.00000E+00  1.69136E-01
      -4    -1     0     0     0   501  0.000000000E+00  0.000000000E+00  6.055623470E+01  6.055623470E+01  0.000000000E+00  0.00000E+00  9.000E+00
      21    -1     0     0   501   511  0.000000000E+00  0.000000000E+00 -1.033938557E+01  1.033938557E+01  0.000000000E+00  0.00000E+00  9.000E+00
      23     2     1     2     0     0 -1.822421257E+01  3.380283553E+00  2.557542089E+01  4.006141482E+01  2.464277913E+01  0.00000E+00  9.000E+00
      11     1     3     3     0     0  6.343079792E-01 -8.227617054E+00  1.011352248E+01  1.305294474E+01  5.109989100E-04  0.00000E+00  9.000E+00
     -11     1     3     3     0     0 -1.885852055E+01  1.160790061E+01  1.546189841E+01  2.700847008E+01  5.109989100E-04  0.00000E+00  9.000E+00
      -4     1     1     2     0   511  1.822421257E+01 -3.380283553E+00  2.464142824E+01  3.083420546E+01  0.000000000E+00  0.00000E+00  9.000E+00
#rwgt            1           2   3472.0500604993199         54217137       22372           0
#pdf  -4  4 0.65569122E-02 0.14471049E-02 0.24642779E+02 0.36460756E+00 0.74473603E+00
</event>
<event>
      5  10011  2.10784E+03  1.00000E+01 -1.00000E+00  1.74418E-01
      -2    -1     0     0     0   501  0.000000000E+00  0.000000000E+00  2.665496392E+02  2.665496392E+02  0.000000000E+00  0.00000E+00  9.000E+00
       2    -1     0     0   501     0  0.000000000E+00  0.000000000E+00 -5.740911438E-01  5.740911438E-01  0.000000000E+00  0.00000E+00  9.000E+00
      23     2     1     2     0     0  0.000000000E+00  0.000000000E+00  2.659755481E+02  2.671237304E+02  2.474055677E+01  0.00000E+00  9.000E+00
      11     1     3     3     0     0  8.753379509E-02  5.803729786E+00  1.504183287E+01  1.612289298E+01  5.109989100E-04  0.00000E+00  9.000E+00
     -11     1     3     3     0     0 -8.753379509E-02 -5.803729786E+00  2.509337152E+02  2.510008374E+02  5.109989100E-04  0.00000E+00  9.000E+00
#rwgt            1           4   32684.127673716161         54217137       22520           0
#pdf  -2  2 0.66637410E-01 0.14352279E-03 0.24740557E+02 0.17779311E+00 0.22259963E+01
</event>
<event>
      5  10011  2.10784E+03  1.00000E+01 -1.00000E+00  1.87126E-01
      -1    -1     0     0     0   501  0.000000000E+00  0.000000000E+00  3.005990881E+01  3.005990881E+01  0.000000000E+00  0.00000E+00  9.000E+00
       1    -1     0     0   501     0  0.000000000E+00  0.000000000E+00 -6.732477822E+01  6.732477822E+01  0.000000000E+00  0.00000E+00  9.000E+00
      23     2     1     2     0     0  0.000000000E+00  0.000000000E+00 -3.726486941E+01  9.738468703E+01  8.997281132E+01  0.00000E+00  9.000E+00
      11     1     3     3     0     0 -2.395111478E+01 -1.849547398E+01 -5.466181198E+01  6.247921371E+01  5.109989100E-04  0.00000E+00  9.000E+00
     -11     1     3     3     0     0  2.395111478E+01  1.849547398E+01  1.739694258E+01  3.490547332E+01  5.109989100E-04  0.00000E+00  9.000E+00
#rwgt            1           5   686.23794820209548         54217137       22694           0
#pdf  -1  1 0.75149772E-02 0.16831195E-01 0.89972811E+02 0.62760857E+00 0.56843821E+00
</event>
<event>
      5  10011  2.10784E+03  1.00000E+01 -1.00000E+00  1.90206E-01
      -2    -1     0     0     0   501  0.000000000E+00  0.000000000E+00  1.187347638E+00  1.187347638E+00  0.000000000E+00  0.00000E+00  9.000E+00
       2    -1     0     0   501     0  0.000000000E+00  0.000000000E+00 -9.175845197E+01  9.175845197E+01  0.000000000E+00  0.00000E+00  9.000E+00
      23     2     1     2     0     0  0.000000000E+00  0.000000000E+00 -9.057110433E+01  9.294579960E+01  2.087574489E+01  0.00000E+00  9.000E+00
      11     1     3     3     0     0 -1.997790962E+00 -6.750410984E-01 -9.080015709E+01  9.082464081E+01  5.109989100E-04  0.00000E+00  9.000E+00
     -11     1     3     3     0     0  1.997790962E+00  6.750410984E-01  2.290527659E-01  2.121158797E+00  5.109989100E-04  0.00000E+00  9.000E+00
#rwgt            1           4   47268.489513839784         54217137       22803           0
#pdf  -2  2 0.29683691E-03 0.22939613E-01 0.20875745E+02 0.16833811E+01 0.67180161E+00
</event>
<event>
      6  10011  2.10784E+03  5.38781E+01 -1.00000E+00  1.37246E-01
       2    -1     0     0   511     0  0.000000000E+00  0.000000000E+00  2.695926488E+01  2.695926488E+01  0.000000000E+00  0.00000E+00  9.000E+00
      -2    -1     0     0     0   501  0.000000000E+00  0.000000000E+00 -2.615064853E+02  2.615064853E+02  0.000000000E+00  0.00000E+00  9.000E+00
      23     2     1     2     0     0  4.178622982E+01 -3.401120160E+01 -1.885893022E+02  2.176492190E+02  9.435256646E+01  0.00000E+00  9.000E+00
      11     1     3     3     0     0  2.516988943E+01  3.020400373E+01 -4.688010394E+01  6.118455132E+01  5.109989100E-04  0.00000E+00  9.000E+00
     -11     1     3     3     0     0  1.661634039E+01 -6.421520533E+01 -1.417091983E+02  1.564646677E+02  5.109989100E-04  0.00000E+00  9.000E+00
      21     1     1     2   511   501 -4.178622982E+01  3.401120160E+01 -4.595791818E+01  7.081653112E+01  6.743495762E-07  0.00000E+00  9.000E+00
#rwgt            1           7   251.79116112175456         54217137       22861           0
#pdf   2 -2 0.31544261E-02 0.44096802E-01 0.94352566E+02 0.11008496E+01 0.23838582E+00
</event>
<event>
      5  10011  2.10784E+03  1.00000E+01 -1.00000E+00  1.91903E-01
       2    -1     0     0   501     0  0.000000000E+00  0.000000000E+00  1.057240825E+03  1.057240825E+03  0.000000000E+00  0.00000E+00  9.000E+00
      -2    -1     0     0     0   501  0.000000000E+00  0.000000000E+00 -2.835245034E-01  2.835245034E-01  0.000000000E+00  0.00000E+00  9.000E+00
      23     2     1     2     0     0  0.000000000E+00  0.000000000E+00  1.056957301E+03  1.057524350E+03  3.462679194E+01  0.00000E+00  9.000E+00
      11     1     3     3     0     0 -7.256524055E+00  1.941954751E+00  1.004878699E+03  1.004906775E+03  5.109989100E-04  0.00000E+00  9.000E+00
     -11     1     3     3     0     0  7.256524055E+00 -1.941954751E+00  5.207860196E+01  5.261757417E+01  5.109989100E-04  0.00000E+00  9.000E+00
#rwgt            1           7   6591.9551396083534         54217137       22977           0
#pdf   2 -2 0.26431021E+00 0.70881126E-04 0.34626792E+02 0.46416116E+00 0.30356878E+01
</event>
<event>
      6  10011  2.10784E+03  1.59806E+01 -1.00000E+00  1.74826E-01
       2    -1     0     0   501     0  0.000000000E+00  0.000000000E+00  2.095936244E+02  2.095936244E+02  0.000000000E+00  0.00000E+00  9.000E+00
      -2    -1     0     0     0   511  0.000000000E+00  0.000000000E+00 -1.833357436E+01  1.833357436E+01  0.000000000E+00  0.00000E+00  9.000E+00
      23     2     1     2     0     0 -3.400012242E+00 -1.561470143E+01  1.884595522E+02  2.117030879E+02  9.510949288E+01  0.00000E+00  9.000E+00
      11     1     3     3     0     0 -3.639577216E+00 -2.754426711E+01  5.460180080E+00  2.831513269E+01  5.109989100E-04  0.00000E+00  9.000E+00
     -11     1     3     3     0     0  2.395649735E-01  1.192956567E+01  1.829993721E+02  1.833879552E+02  5.109989100E-04  0.00000E+00  9.000E+00
      21     1     1     2   501   511  3.400012242E+00  1.561470143E+01  2.800497840E+00  1.622411083E+01  9.424321831E-08  0.00000E+00  9.000E+00
#rwgt            1           7   1727.4848771276475         54217137       23029           0
#pdf   2 -2 0.49328857E-01 0.28652776E-02 0.95109493E+02 0.67006412E+00 0.10079125E+01
</event>
<event>
      6  10011  2.10784E+03  1.72860E+01 -1.00000E+00  1.71765E-01
      21    -1     0     0   501   511  0.000000000E+00  0.000000000E+00  3.870174233E+01  3.870174233E+01  0.000000000E+00  0.00000E+00  9.000E+00
      -3    -1     0     0     0   501  0.000000000E+00  0.000000000E+00 -5.372144360E+01  5.372144360E+01  0.000000000E+00  0.00000E+00  9.000E+00
      23     2     1     2     0     0  1.727679036E+01  5.632592482E-01 -3.978386912E+01  6.222270984E+01  4.461058878E+01  0.00000E+00  9.000E+00
      11     1     3     3     0     0  2.674547357E+01 -1.268617583E+01 -1.674580343E+01  3.401001833E+01  5.109989100E-04  0.00000E+00  9.000E+00
     -11     1     3     3     0     0 -9.468683213E+00  1.324943507E+01 -2.303806569E+01  2.821269152E+01  5.109989100E-04  0.00000E+00  9.000E+00
      -3     1     1     2     0   511 -1.727679036E+01 -5.632592482E-01  2.476416786E+01  3.020047609E+01  0.000000000E+00  0.00000E+00  9.000E+00
#rwgt            1           8   191.46712087992444         54217137       23195           0
#pdf   3 -3 0.26153757E-02 0.11889452E-01 0.44610589E+02 0.84840421E+00 0.40843710E+00
</event>
<event>
      6  10011  2.10784E+03  1.50007E+01 -1.00000E+00  1.77376E-01
       2    -1     0     0   501     0  0.000000000E+00  0.000000000E+00  8.625492826E+02  8.625492826E+02  0.000000000E+00  0.00000E+00  9.000E+00
      21    -1     0     0   511   501  0.000000000E+00  0.000000000E+00 -1.433744458E+00  1.433744458E+00  0.000000000E+00  0.00000E+00  9.000E+00
      23     2     1     2     0     0 -8.318289405E+00  1.248306169E+01  7.975948745E+02  7.987151523E+02  3.953846089E+01  0.00000E+00  9.000E+00
      11     1     3     3     0     0  1.545231148E+01  8.840762944E+00  2.838239999E+02  2.843817785E+02  5.109989100E-04  0.00000E+00  9.000E+00
     -11     1     3     3     0     0 -2.377060088E+01  3.642298747E+00  5.137708746E+02  5.143333738E+02  5.109989100E-04  0.00000E+00  9.000E+00
       2     1     1     2   511     0  8.318289405E+00 -1.248306169E+01  6.352066356E+01  6.526787470E+01  0.000000000E+00  0.00000E+00  9.000E+00
#rwgt            1           7   10695.522902346896         54217137       23243           0
#pdf   2 -2 0.18656301E+00 0.13092845E-03 0.39538461E+02 0.56042390E+00 0.26156110E+01
</event>
<event>
      5  10011  2.10784E+03  1.00000E+01 -1.00000E+00  1.95581E-01
      -2    -1     0     0     0   501  0.000000000E+00  0.000000000E+00  5.763445715E+00  5.763445715E+00  0.000000000E+00  0.00000E+00  9.000E+00
       2    -1     0     0   501     0  0.000000000E+00  0.000000000E+00 -3.327225276E+02  3.327225276E+02  0.000000000E+00  0.00000E+00  9.000E+00
      23     2     1     2     0     0  0.000000000E+00  0.000000000E+00 -3.269590819E+02  3.384859733E+02  8.758146439E+01  0.00000E+00  9.000E+00
      11     1     3     3     0     0  3.993217228E+01 -6.734599151E+00 -9.907558900E+01  1.070322640E+02  5.109989100E-04  0.00000E+00  9.000E+00
     -11     1     3     3     0     0 -3.993217228E+01  6.734599151E+00 -2.278834929E+02  2.314537093E+02  5.109989100E-04  0.00000E+00  9.000E+00
#rwgt            1           4   1484.3785417316760         54217137       23298           0
#pdf  -2  2 0.14408614E-02 0.83180632E-01 0.87581464E+02 0.13231137E+01 0.64184200E+00
</event>
<event>
      5  10011  2.10784E+03  1.00000E+01 -1.00000E+00  1.93243E-01
      -4    -1     0     0     0   501  0.000000000E+00  0.000000000E+00  1.257969644E+01  1.257969644E+01  0.000000000E+00  0.00000E+00  9.000E+00
       4    -1     0     0   501     0  0.000000000E+00  0.000000000E+00 -1.663066747E+02  1.663066747E+02  0.000000000E+00  0.00000E+00  9.000E+00
      23     2     1     2     0     0  0.000000000E+00  0.000000000E+00 -1.537269783E+02  1.788863712E+02  9.147868570E+01  0.00000E+00  9.000E+00
      11     1     3     3     0     0 -4.093765060E+01  1.442847045E+01 -4.865984840E+01  6.520623316E+01  5.109989100E-04  0.00000E+00  9.000E+00
     -11     1     3     3     0     0  4.093765060E+01 -1.442847045E+01 -1.050671299E+02  1.136801380E+02  5.109989100E-04  0.00000E+00  9.000E+00
#rwgt            1           2   149.73285461925482         54217137       23415           0
#pdf  -4  4 0.31449241E-02 0.41576669E-01 0.91478686E+02 0.70094791E+00 0.10112336E+00
</event>
<event>
      6  10011  2.10784E+03  1.12382E+01 -1.00000E+00  1.90067E-01
       2    -1     0     0   501     0  0.000000000E+00  0.000000000E+00  1.205192469E+03  1.205192469E+03  0.000000000E+00  0.00000E+00  9.000E+00
      21    -1     0     0   511   501  0.000000000E+00  0.000000000E+00 -3.113869417E-01  3.113869417E-01  0.000000000E+00  0.00000E+00  9.000E+00
      23     2     1     2     0     0 -9.842461734E+00  5.424342082E+00  9.416005160E+02  9.419835456E+02  2.439612186E+01  0.00000E+00  9.000E+00
      11     1     3     3     0     0 -6.074962011E+00 -3.112918321E+00  8.189872903E+02  8.190157368E+02  5.109989100E-04  0.00000E+00  9.000E+00
     -11     1     3     3     0     0 -3.767499723E+00  8.537260403E+00  1.226132258E+02  1.229678088E+02  5.109989100E-04  0.00000E+00  9.000E+00
       2     1     1     2   511     0  9.842461734E+00 -5.424342082E+00  2.632805662E+02  2.635203106E+02  0.000000000E+00  0.00000E+00  9.000E+00
#rwgt            1           7   16638.612804098429         54217137       23492           0
#pdf   2 -2 0.21384898E+00 0.43486497E-04 0.24396122E+02 0.54840726E+00 0.30989460E+01
</event>
<event>
      6  10011  2.10784E+03  1.47355E+01 -1.00000E+00  1.78109E-01
      21    -1     0     0   501   511  0.000000000E+00  0.000000000E+00  1.275172337E+01  1.275172337E+01  0.000000000E+00  0.00000E+00  9.000E+00
      -2    -1     0     0     0   501  0.000000000E+00  0.000000000E+00 -4.635471732E+01  4.635471732E+01  0.000000000E+00  0.00000E+00  9.000E+00
      23     2     1     2     0     0 -5.782542007E+00  1.355345530E+01 -3.557740510E+01  4.423928756E+01  2.177679653E+01  0.00000E+00  9.000E+00
      11     1     3     3     0     0 -7.341613353E+00 -3.986611334E+00 -8.334246715E+00  1.180050953E+01  5.109989100E-04  0.00000E+00  9.000E+00
     -11     1     3     3     0     0  1.559071346E+00  1.754006663E+01 -2.724315839E+01  3.243877803E+01  5.109989100E-04  0.00000E+00  9.000E+00
      -2     1     1     2     0   511  5.782542007E+00 -1.355345530E+01  1.974411153E+00  1.486715313E+01  0.000000000E+00  0.00000E+00  9.000E+00
#rwgt            1           7   15819.443963026904         54217137       23603           0
#pdf   2 -2 0.89673328E-03 0.82631327E-02 0.21776797E+02 0.12590096E+01 0.54090396E+00
</event>
<event>
      5  10011  2.10784E+03  1.00000E+01 -1.00000E+00  1.95561E-01
       2    -1     0     0   501     0  0.000000000E+00  0.000000000E+00  6.647352757E+02  6.647352757E+02  0.000000000E+00  0.00000E+00  9.000E+00
      -2    -1     0     0     0   501  0.000000000E+00  0.000000000E+00 -3.107044529E+00  3.107044529E+00  0.000000000E+00  0.00000E+00  9.000E+00
      23     2     1     2     0     0  0.000000000E+00  0.000000000E+00  6.616282312E+02  6.678423203E+02  9.089251018E+01  0.00000E+00  9.000E+00
      11     1     3     3     0     0 -3.268965627E+01 -3.782429986E+00  1.005113082E+02  1.057612569E+02  5.109989100E-04  0.00000E+00  9.000E+00
     -11     1     3     3     0     0  3.268965627E+01  3.782429986E+00  5.611169231E+02  5.620810634E+02  5.109989100E-04  0.00000E+00  9.000E+00
#rwgt            1           7   416.62407337989293         54217137       23657           0
#pdf   2 -2 0.16618382E+00 0.77676113E-03 0.90892510E+02 0.55622676E+00 0.16946982E+01
</event>
<event>
      6  10011  2.10784E+03  3.01773E+01 -1.00000E+00  1.52858E-01
      -2    -1     0     0     0   511  0.000000000E+00  0.000000000E+00  3.838399309E+01  3.838399309E+01  0.000000000E+00  0.00000E+00  9.000E+00
       2    -1     0     0   501     0  0.000000000E+00  0.000000000E+00 -2.581391540E+02  2.581391540E+02  0.000000000E+00  0.00000E+00  9.000E+00
      23     2     1     2     0     0 -1.999180656E+01 -2.260518961E+01 -2.401206949E+02  2.601168028E+02  9.535269283E+01  0.00000E+00  9.000E+00
      11     1     3     3     0     0  2.160276868E+01 -4.296325663E+01 -7.911459250E+01  9.258315064E+01  5.109989100E-04  0.00000E+00  9.000E+00
     -11     1     3     3     0     0 -4.159457525E+01  2.035806701E+01 -1.610061024E+02  1.675336522E+02  5.109989100E-04  0.00000E+00  9.000E+00
      21     1     1     2   501   511  1.999180656E+01  2.260518961E+01  2.036553405E+01  3.640634428E+01  0.000000000E+00  0.00000E+00  9.000E+00
#rwgt            1           4   156.83963004755680         54217137       23740           0
#pdf  -2  2 0.23830195E-02 0.59615386E-01 0.95352693E+02 0.10898212E+01 0.66078395E+00
</event>
<event>
      5  10011  2.10784E+03  1.00000E+01 -1.00000E+00  1.92473E-01
       1    -1     0     0   501     0  0.000000000E+00  0.000000000E+00  4.868022599E+01  4.868022599E+01  0.000000000E+00  0.00000E+00  9.000E+00
      -1    -1     0     0     0   501  0.000000000E+00  0.000000000E+00 -5.846174305E+01  5.846174305E+01  0.000000000E+00  0.00000E+00  9.000E+00
      23     2     1     2     0     0  0.000000000E+00  0.000000000E+00 -9.781517056E+00  1.071419690E+02  1.066945334E+02  0.00000E+00  9.000E+00
      11     1     3     3     0     0  3.603373002E+01 -1.671057490E+01  3.087119503E+01  5.030609998E+01  5.109989100E-04  0.00000E+00  9.000E+00
     -11     1     3     3     0     0 -3.603373002E+01  1.671057490E+01 -4.065271209E+01  5.683586907E+01  5.109989100E-04  0.00000E+00  9.000E+00
#rwgt            1           6   3300.4513339845585         54217137       23816           0
#pdf   1 -1 0.12170056E-01 0.14615436E-01 0.10669453E+03 0.63438380E+00 0.43892673E+00
</event>
<event>
      6  10011  2.10784E+03  3.78681E+01 -1.00000E+00  1.46327E-01
       2    -1     0     0   501     0  0.000000000E+00  0.000000000E+00  7.343144596E+01  7.343144596E+01  0.000000000E+00  0.00000E+00  9.000E+00
      21    -1     0     0   511   501  0.000000000E+00  0.000000000E+00 -7.273467302E+02  7.273467302E+02  0.000000000E+00  0.00000E+00  9.000E+00
      23     2     1     2     0     0  3.213448058E+01 -2.003411655E+01  4.214775907E+01  1.036858215E+02  8.683504660E+01  0.00000E+00  9.000E+00
      11     1     3     3     0     0  4.119019775E+01 -3.683476429E+01  5.708560091E+01  7.944934287E+01  5.109989100E-04  0.00000E+00  9.000E+00
     -11     1     3     3     0     0 -9.055717163E+00  1.680064774E+01 -1.493784184E+01  2.423647864E+01  5.109989100E-04  0.00000E+00  9.000E+00
       2     1     1     2   511     0 -3.213448058E+01  2.003411655E+01 -6.960630433E+02  6.970923546E+02  0.000000000E+00  0.00000E+00  9.000E+00
#rwgt            1           7   325.62445187545194         54217137       23885           0
#pdf   2 -2 0.16709441E-01 0.70509591E-02 0.86835047E+02 0.73985933E+00 0.66943725E+00
</event>
<event>
      6  10011  2.10784E+03  3.00714E+01 -1.00000E+00  1.52964E-01
       1    -1     0     0   511     0  0.000000000E+00  0.000000000E+00  1.100362660E+02  1.100362660E+02  0.000000000E+00  0.00000E+00  9.000E+00
      -1    -1     0     0     0   501  0.000000000E+00  0.000000000E+00 -3.439189705E+01  3.439189705E+01  0.000000000E+00  0.00000E+00  9.000E+00
      23     2     1     2     0     0 -1.822134840E+01 -2.392225569E+01  5.233252347E+01  1.063790633E+02  8.759863144E+01  0.00000E+00  9.000E+00
      11     1     3     3     0     0 -4.550243043E+00  3.127039999E+01  3.450728730E+01  4.678990815E+01  5.109989100E-04  0.00000E+00  9.000E+00
     -11     1     3     3     0     0 -1.367110536E+01 -5.519265568E+01  1.782523617E+01  5.958915511E+01  5.109989100E-04  0.00000E+00  9.000E+00
      21     1     1     2   511   501  1.822134840E+01  2.392225569E+01  2.331184546E+01  3.804909977E+01  4.768371582E-07  0.00000E+00  9.000E+00
#rwgt            1           6   874.40879835636190         54217137       23942           0
#pdf   1 -1 0.18764098E-01 0.63897956E-02 0.87598631E+02 0.55010836E+00 0.67906546E+00
</event>
<event>
      6  10011  2.10784E+03  1.07150E+01 -1.00000E+00  1.92346E-01
      -3    -1     0     0     0   501  0.000000000E+00  0.000000000E+00  6.174803356E+01  6.174803356E+01  0.000000000E+00  0.00000E+00  9.000E+00
      21    -1     0     0   501   511  0.000000000E+00  0.000000000E+00 -9.096617527E+00  9.096617527E+00  0.000000000E+00  0.00000E+00  9.000E+00
      23     2     1     2     0     0  1.028413327E+01 -3.007971950E+00  5.393183646E+01  6.005341535E+01  2.414453185E+01  0.00000E+00  9.000E+00
      11     1     3     3     0     0 -2.395071086E+00 -2.660175140E+00  4.345465563E+01  4.360183475E+01  5.109989100E-04  0.00000E+00  9.000E+00
     -11     1     3     3     0     0  1.267920435E+01 -3.477968097E-01  1.047718083E+01  1.645158060E+01  5.109989100E-04  0.00000E+00  9.000E+00
      -3     1     1     2     0   511 -1.028413327E+01  3.007971950E+00 -1.280420430E+00  1.079123574E+01  0.000000000E+00  0.00000E+00  9.000E+00
#rwgt            1           3   2777.5783644642479         54217137       23985           0
#pdf  -3  3 0.13023311E-01 0.69941702E-03 0.24144532E+02 0.36326891E+00 0.12243817E+01
</event>
<event>
      5  10011  2.10784E+03  1.00000E+01 -1.00000E+00  1.78529E-01
       3    -1     0     0   501     0  0.000000000E+00  0.000000000E+00  2.923543912E+02  2.923543912E+02  0.000000000E+00  0.00000E+00  9.000E+00
      -3    -1     0     0     0   501  0.000000000E+00  0.000000000E+00 -3.003446736E+00  3.003446736E+00  0.000000000E+00  0.00000E+00  9.000E+00
      23     2     1     2     0     0  0.000000000E+00  0.000000000E+00  2.893509445E+02  2.953578380E+02  5.926452031E+01  0.00000E+00  9.000E+00
      11     1     3     3     0     0  1.104006622E+01 -2.352399385E+01  7.370170361E+01  7.814859221E+01  5.109989100E-04  0.00000E+00  9.000E+00
     -11     1     3     3     0     0 -1.104006622E+01  2.352399385E+01  2.156492409E+02  2.172092457E+02  5.109989100E-04  0.00000E+00  9.000E+00
#rwgt            1           8   22.923714364037622         54217137       24033           0
#pdf   3 -3 0.73088598E-01 0.75086168E-03 0.59264520E+02 0.95534954E-01 0.14779174E+01
</event>
<event>
      6  10011  2.10784E+03  1.47071E+01 -1.00000E+00  1.78188E-01
      21    -1     0     0   511   501  0.000000000E+00  0.000000000E+00  6.149508979E+00  6.149508979E+00  0.000000000E+00  0.00000E+00  9.000E+00
       2    -1     0     0   501     0  0.000000000E+00  0.000000000E+00 -1.265274746E+02  1.265274746E+02  0.000000000E+00  0.00000E+00  9.000E+00
      23     2     1     2     0     0  1.157451219E+01  9.073598153E+00 -1.071610756E+02  1.129036253E+02  3.236406901E+01  0.00000E+00  9.000E+00
      11     1     3     3     0     0  1.341621560E+01  5.363424107E+00 -1.565377644E+01  2.130262604E+01  5.109989100E-04  0.00000E+00  9.000E+00
     -11     1     3     3     0     0 -1.841703404E+00  3.710174046E+00 -9.150729917E+01  9.160099925E+01  5.109989100E-04  0.00000E+00  9.000E+00
       2     1     1     2   511     0 -1.157451219E+01 -9.073598153E+00 -1.321688999E+01  1.977335826E+01  0.000000000E+00  0.00000E+00  9.000E+00
#rwgt            1           4   8557.9941035157717         54217137       24101           0
#pdf  -2  2 0.65350711E-03 0.25043553E-01 0.32364069E+02 0.14695133E+01 0.68319706E+00
</event>
<event>
      6  10011  2.10784E+03  1.93729E+01 -1.00000E+00  1.67514E-01
      21    -1     0     0   511   501  0.000000000E+00  0.000000000E+00  2.303903958E+01  2.303903958E+01  0.000000000E+00  0.00000E+00  9.000E+00
       2    -1     0     0   501     0  0.000000000E+00  0.000000000E+00 -2.559714151E+02  2.559714151E+02  0.000000000E+00  0.00000E+00  9.000E+00
      23     2     1     2     0     0 -1.844803970E+01 -5.914426643E+00 -2.400979776E+02  2.583547905E+02  9.340689639E+01  0.00000E+00  9.000E+00
      11     1     3     3     0     0 -3.913276669E+01 -1.022543440E+01 -3.912254366E+01  5.627171900E+01  5.109989100E-04  0.00000E+00  9.000E+00
     -11     1     3     3     0     0  2.068472699E+01  4.311007757E+00 -2.009754340E+02  2.020830715E+02  5.109989100E-04  0.00000E+00  9.000E+00
       2     1     1     2   511     0  1.844803970E+01  5.914426643E+00  7.165602081E+00  2.065566422E+01  0.000000000E+00  0.00000E+00  9.000E+00
#rwgt            1           4   580.29693377219041         54217137       24149           0
#pdf  -2  2 0.22345467E-02 0.61008238E-01 0.93406896E+02 0.11165255E+01 0.65969720E+00
</event>
<event>
      5  10011  2.10784E+03  1.00000E+01 -1.00000E+00  1.88872E-01
      -2    -1     0     0     0   501  0.000000000E+00  0.000000000E+00  1.717700404E+00  1.717700404E+00  0.000000000E+00  0.00000E+00  9.000E+00
       2    -1     0     0   501     0  0.000000000E+00  0.000000000E+00 -1.202912237E+03  1.202912237E+03  0.000000000E+00  0.00000E+00  9.000E+00
      23     2     1     2     0     0  0.000000000E+00  0.000000000E+00 -1.201194536E+03  1.204629937E+03  9.091188780E+01  0.00000E+00  9.000E+00
      11     1     3     3     0     0  5.437365708E+00  4.117959637E+01 -8.452546976E+02  8.462746764E+02  5.109989100E-04  0.00000E+00  9.000E+00
     -11     1     3     3     0     0 -5.437365708E+00 -4.117959637E+01 -3.559398388E+02  3.583552608E+02  5.109989100E-04  0.00000E+00  9.000E+00
#rwgt            1           4   3027.6594693656975         54217137       24395           0
#pdf  -2  2 0.42942510E-03 0.30072806E+00 0.90911888E+02 0.21180615E+01 0.36834327E+00
</event>
<event>
      5  10011  2.10784E+03  1.00000E+01 -1.00000E+00  1.81407E-01
       2    -1     0     0   501     0  0.000000000E+00  0.000000000E+00  1.832561344E+02  1.832561344E+02  0.000000000E+00  0.00000E+00  9.000E+00
      -2    -1     0     0     0   501  0.000000000E+00  0.000000000E+00 -1.141068936E+01  1.141068936E+01  0.000000000E+00  0.00000E+00  9.000E+00
      23     2     1     2     0     0  0.000000000E+00  0.000000000E+00  1.718454451E+02  1.946668238E+02  9.145663068E+01  0.00000E+00  9.000E+00
      11     1     3     3     0     0 -4.358350797E+01 -1.381864725E+01  8.757372159E+01  9.879085936E+01  5.109989100E-04  0.00000E+00  9.000E+00
     -11     1     3     3     0     0  4.358350797E+01  1.381864725E+01  8.427172348E+01  9.587596444E+01  5.109989100E-04  0.00000E+00  9.000E+00
#rwgt            1           7   699.37603704378455         54217137       24603           0
#pdf   2 -2 0.45814034E-01 0.28526723E-02 0.91456631E+02 0.67349318E+00 0.10050652E+01
</event>
<event>
      6  10011  2.10784E+03  1.82521E+01 -1.00000E+00  1.69709E-01
      21    -1     0     0   501   511  0.000000000E+00  0.000000000E+00  7.001349878E+00  7.001349878E+00  0.000000000E+00  0.00000E+00  9.000E+00
      -4    -1     0     0     0   501  0.000000000E+00  0.000000000E+00 -1.085031676E+02  1.085031676E+02  0.000000000E+00  0.00000E+00  9.000E+00
      23     2     1     2     0     0  1.209370768E+01 -1.367045785E+01 -4.709572215E+01  5.811843539E+01  2.875076178E+01  0.00000E+00  9.000E+00
      11     1     3     3     0     0  1.683481050E+00 -1.508643523E+01 -7.086322392E+00  1.675262970E+01  5.109989100E-04  0.00000E+00  9.000E+00
     -11     1     3     3     0     0  1.041022663E+01  1.415977386E+00 -4.000939976E+01  4.136580569E+01  5.109989100E-04  0.00000E+00  9.000E+00
      -4     1     1     2     0   511 -1.209370768E+01  1.367045785E+01 -5.440609561E+01  5.738608213E+01  0.000000000E+00  0.00000E+00  9.000E+00
#rwgt            1           9   3642.5489404998621         54217137       24670           0
#pdf   4 -4 0.11632325E-02 0.11103303E-01 0.28750762E+02 0.85503233E+00 0.27587639E+00
</event>
<event>
      6  10011  2.10784E+03  4.51195E+01 -1.00000E+00  1.41666E-01
      21    -1     0     0   511   501  0.000000000E+00  0.000000000E+00  9.964799588E+00  9.964799588E+00  0.000000000E+00  0.00000E+00  9.000E+00
       1    -1     0     0   501     0  0.000000000E+00  0.000000000E+00 -1.335552877E+03  1.335552877E+03  0.000000000E+00  0.00000E+00  9.000E+00
      23     2     1     2     0     0  8.587554195E-01 -4.511132216E+01 -1.270799581E+03  1.274541990E+03  8.654443085E+01  0.00000E+00  9.000E+00
      11     1     3     3     0     0 -3.031996019E+01 -3.523796804E+01 -3.394451581E+02  3.426135283E+02  5.109989100E-04  0.00000E+00  9.000E+00
     -11     1     3     3     0     0  3.117871561E+01 -9.873354123E+00 -9.313544232E+02  9.319284614E+02  5.109989100E-04  0.00000E+00  9.000E+00
       1     1     1     2   511     0 -8.587554195E-01  4.511132216E+01 -5.478849633E+01  7.097568723E+01  0.000000000E+00  0.00000E+00  9.000E+00
#rwgt            1           5   2477.2443395158393         54217137       24713           0
#pdf  -1  1 0.41481236E-03 0.28212826E+00 0.86544431E+02 0.21208783E+01 0.15276683E+00
</event>
<event>
      6  10011  2.10784E+03  1.96836E+01 -1.00000E+00  1.66937E-01
      21    -1     0     0   501   511  0.000000000E+00  0.000000000E+00  8.313860655E+01  8.313860655E+01  0.000000000E+00  0.00000E+00  9.000E+00
      -2    -1     0     0     0   501  0.000000000E+00  0.000000000E+00 -3.799536124E+01  3.799536124E+01  0.000000000E+00  0.00000E+00  9.000E+00
      23     2     1     2     0     0 -1.205011390E+01 -1.556407424E+01  3.173260283E+01  9.731609670E+01  8.986667314E+01  0.00000E+00  9.000E+00
      11     1     3     3     0     0 -3.828988336E+01 -2.786987797E+01 -8.109447697E+00  4.804798027E+01  5.109989100E-04  0.00000E+00  9.000E+00
     -11     1     3     3     0     0  2.623976946E+01  1.230580372E+01  3.984205053E+01  4.926811644E+01  5.109989100E-04  0.00000E+00  9.000E+00
      -2     1     1     2     0   511  1.205011390E+01  1.556407424E+01  1.341064248E+01  2.381787110E+01  0.000000000E+00  0.00000E+00  9.000E+00
#rwgt            1           7   1416.9765812271655         54217137       24754           0
#pdf   2 -2 0.15757533E-01 0.80080935E-02 0.89866673E+02 0.74721328E+00 0.63230869E+00
</event>
<event>
      5  10011  2.10784E+03  1.00000E+01 -1.00000E+00  1.87244E-01
      -2    -1     0     0     0   501  0.000000000E+00  0.000000000E+00  2.041730341E+01  2.041730341E+01  0.000000000E+00  0.00000E+00  9.000E+00
       2    -1     0     0   501     0  0.000000000E+00  0.000000000E+00 -1.075454345E+01  1.075454345E+01  0.000000000E+00  0.00000E+00  9.000E+00
      23     2     1     2     0     0  0.000000000E+00  0.000000000E+00  9.662759962E+00  3.117184685E+01  2.963638146E+01  0.00000E+00  9.000E+00
      11     1     3     3     0     0 -1.025554950E+01 -7.140956671E+00 -3.544174311E+00  1.298963932E+01  5.109989100E-04  0.00000E+00  9.000E+00
     -11     1     3     3     0     0  1.025554950E+01  7.140956671E+00  1.320693427E+01  1.818220754E+01  5.109989100E-04  0.00000E+00  9.000E+00
#rwgt            1           4   6143.0090589369347         54217137       24825           0
#pdf  -2  2 0.51043259E-02 0.26886359E-02 0.29636381E+02 0.68371748E+00 0.98597080E+00
</event>
<event>
      6  10011  2.10784E+03  2.25452E+01 -1.00000E+00  1.62183E-01
      21    -1     0     0   511   501  0.000000000E+00  0.000000000E+00  1.948190291E+00  1.948190291E+00  0.000000000E+00  0.00000E+00  9.000E+00
       2    -1     0     0   501     0  0.000000000E+00  0.000000000E+00 -7.621319413E+02  7.621319413E+02  0.000000000E+00  0.00000E+00  9.000E+00
      23     2     1     2     0     0  1.042093683E+01 -1.999229698E+01 -6.096671099E+02  6.118843790E+02  4.690650785E+01  0.00000E+00  9.000E+00
      11     1     3     3     0     0  1.879458759E+01  1.541423385E+00 -4.651429215E+02  4.655250261E+02  5.109989100E-04  0.00000E+00  9.000E+00
     -11     1     3     3     0     0 -8.373650759E+00 -2.153372037E+01 -1.445241884E+02  1.463593528E+02  5.109989100E-04  0.00000E+00  9.000E+00
       2     1     1     2   511     0 -1.042093683E+01  1.999229698E+01 -1.505166411E+02  1.521957526E+02  0.000000000E+00  0.00000E+00  9.000E+00
#rwgt            1           4   2002.2783714907432         54217137       24883           0
#pdf  -2  2 0.24980230E-03 0.13762261E+00 0.46906508E+02 0.22192450E+01 0.60658296E+00
</event>
<event>
      6  10011  2.10784E+03  1.30542E+01 -1.00000E+00  1.83257E-01
      21    -1     0     0   501   511  0.000000000E+00  0.000000000E+00  1.370654869E+01  1.370654869E+01  0.000000000E+00  0.00000E+00  9.000E+00
      -3    -1     0     0     0   501  0.000000000E+00  0.000000000E+00 -2.654931357E+02  2.654931357E+02  0.000000000E+00  0.00000E+00  9.000E+00
      23     2     1     2     0     0 -1.136797252E+01 -6.417329996E+00 -2.522993514E+02  2.661353876E+02  8.368195080E+01  0.00000E+00  9.000E+00
      11     1     3     3     0     0 -5.130340210E+00  3.822148384E+01 -1.374749902E+02  1.427815645E+02  5.109989100E-04  0.00000E+00  9.000E+00
     -11     1     3     3     0     0 -6.237632313E+00 -4.463881384E+01 -1.148243611E+02  1.233538231E+02  5.109989100E-04  0.00000E+00  9.000E+00
      -3     1     1     2     0   511  1.136797252E+01  6.417329996E+00  5.127643909E-01  1.306429680E+01  0.000000000E+00  0.00000E+00  9.000E+00
#rwgt            1           8   137.10826087277698         54217137       24999           0
#pdf   3 -3 0.17088369E-02 0.64029928E-01 0.83681951E+02 0.11276191E+01 0.11083189E+00
</event>
<event>
      5  10011  2.10784E+03  1.00000E+01 -1.00000E+00  1.95590E-01
      -1    -1     0     0     0   501  0.000000000E+00  0.000000000E+00  3.021652146E+01  3.021652146E+01  0.000000000E+00  0.00000E+00  9.000E+00
       1    -1     0     0   501     0  0.000000000E+00  0.000000000E+00 -4.874821258E+01  4.874821258E+01  0.000000000E+00  0.00000E+00  9.000E+00
      23     2     1     2     0     0  0.000000000E+00  0.000000000E+00 -1.853169111E+01  7.896473404E+01  7.675940103E+01  0.00000E+00  9.000E+00
      11     1     3     3     0     0 -2.877273315E+01  2.510515766E+01 -1.323177120E+01  4.041310287E+01  5.109989100E-04  0.00000E+00  9.000E+00
     -11     1     3     3     0     0  2.877273315E+01 -2.510515766E+01 -5.299919915E+00  3.855163117E+01  5.109989100E-04  0.00000E+00  9.000E+00
#rwgt            1           5   1386.0794018801980         54217137       25267           0
#pdf  -1  1 0.75541304E-02 0.12187053E-01 0.76759401E+02 0.61755968E+00 0.62202693E+00
</event>
<event>
      5  10011  2.10784E+03  1.00000E+01 -1.00000E+00  1.84043E-01
       2    -1     0     0   501     0  0.000000000E+00  0.000000000E+00  7.667953626E+02  7.667953626E+02  0.000000000E+00  0.00000E+00  9.000E+00
      -2    -1     0     0     0   501  0.000000000E+00  0.000000000E+00 -2.688346263E+00  2.688346263E+00  0.000000000E+00  0.00000E+00  9.000E+00
      23     2     1     2     0     0  0.000000000E+00  0.000000000E+00  7.641070164E+02  7.694837089E+02  9.080553832E+01  0.00000E+00  9.000E+00
      11     1     3     3     0     0 -1.972212383E+01  1.691292534E-02  7.286016168E+02  7.288684919E+02  5.109989100E-04  0.00000E+00  9.000E+00
     -11     1     3     3     0     0  1.972212383E+01 -1.691292534E-02  3.550539960E+01  4.061521704E+01  5.109989100E-04  0.00000E+00  9.000E+00
#rwgt            1           7   1950.8710215821659         54217137       25404           0
#pdf   2 -2 0.19169884E+00 0.67208657E-03 0.90805538E+02 0.52427622E+00 0.17906372E+01
</event>
<event>
      6  10011 -2.10784E+03  1.24026E+01 -1.00000E+00  1.85527E-01
      21    -1     0     0   511   501  0.000000000E+00  0.000000000E+00  6.129809009E+01  6.129809009E+01  0.000000000E+00  0.00000E+00  9.000E+00
       5    -1     0     0   501     0  0.000000000E+00  0.000000000E+00 -4.688075058E+01  4.688075058E+01  0.000000000E+00  0.00000E+00  9.000E+00
      23     2     1     2     0     0  1.154292226E+00  1.234872077E+01  2.241492931E+00  9.079854910E+01  8.991956924E+01  0.00000E+00  9.000E+00
      11     1     3     3     0     0 -1.156395189E+01  4.486395134E+01  2.133271846E+01  5.100572507E+01  5.109989100E-04  0.00000E+00  9.000E+00
     -11     1     3     3     0     0  1.271824412E+01 -3.251523057E+01 -1.909122552E+01  3.979282403E+01  5.109989100E-04  0.00000E+00  9.000E+00
       5     1     1     2   511     0 -1.154292226E+00 -1.234872077E+01  1.217584658E+01  1.738029157E+01  0.000000000E+00  0.00000E+00  9.000E+00
#rwgt            1           1  -305.53363466429715         54217137       25469           0
#pdf  -5  5 0.11520931E-01 0.10965814E-01 0.89919569E+02 0.21084267E+00 0.21885248E+00
</event>
<event>
      6  10011  2.10784E+03  1.80960E+01 -1.00000E+00  1.70030E-01
      21    -1     0     0   511   501  0.000000000E+00  0.000000000E+00  1.374328434E+00  1.374328434E+00  0.000000000E+00  0.00000E+00  9.000E+00
       2    -1     0     0   501     0  0.000000000E+00  0.000000000E+00 -5.581242037E+02  5.581242037E+02  0.000000000E+00  0.00000E+00  9.000E+00
      23     2     1     2     0     0  1.705051135E+01 -6.061908481E+00 -3.822998259E+02  3.841124256E+02  3.258422745E+01  0.00000E+00  9.000E+00
      11     1     3     3     0     0  1.232507423E+01 -1.010639348E+01 -3.698694515E+02  3.702127197E+02  5.109989100E-04  0.00000E+00  9.000E+00
     -11     1     3     3     0     0  4.725437117E+00  4.044485001E+00 -1.243037441E+01  1.389970586E+01  5.109989100E-04  0.00000E+00  9.000E+00
       2     1     1     2   511     0 -1.705051135E+01  6.061908481E+00 -1.744500493E+02  1.753861065E+02  0.000000000E+00  0.00000E+00  9.000E+00
#rwgt            1           4   20215.045296021912         54217137       25589           0
#pdf  -2  2 0.19807842E-03 0.83752488E-01 0.32584227E+02 0.21730627E+01 0.65402610E+00
</event>
<event>
      5  10011  2.10784E+03  1.00000E+01 -1.00000E+00  1.89406E-01
       2    -1     0     0   501     0  0.000000000E+00  0.000000000E+00  1.414638873E+03  1.414638873E+03  0.000000000E+00  0.00000E+00  9.000E+00
      -2    -1     0     0     0   501  0.000000000E+00  0.000000000E+00 -1.181366533E-01  1.181366533E-01  0.000000000E+00  0.00000E+00  9.000E+00
      23     2     1     2     0     0  0.000000000E+00  0.000000000E+00  1.414520736E+03  1.414757009E+03  2.585503449E+01  0.00000E+00  9.000E+00
      11     1     3     3     0     0  6.600008421E+00 -8.660360414E+00  3.259571471E+02  3.261389638E+02  5.109989100E-04  0.00000E+00  9.000E+00
     -11     1     3     3     0     0 -6.600008421E+00  8.660360414E+00  1.088563589E+03  1.088618046E+03  5.109989100E-04  0.00000E+00  9.000E+00
#rwgt            1           7   111269.22302661325         54217137       25772           0
#pdf   2 -2 0.35365972E+00 0.29534163E-04 0.25855034E+02 0.34473088E+00 0.35268445E+01
</event>
<event>
      6  10011  2.10784E+03  1.15866E+01 -1.00000E+00  1.88637E-01
       2    -1     0     0   501     0  0.000000000E+00  0.000000000E+00  1.963455768E+02  1.963455768E+02  0.000000000E+00  0.00000E+00  9.000E+00
      -2    -1     0     0     0   511  0.000000000E+00  0.000000000E+00 -1.897648400E+00  1.897648400E+00  0.000000000E+00  0.00000E+00  9.000E+00
      23     2     1     2     0     0  5.522104490E+00  1.018603417E+01  1.585447292E+02  1.605167273E+02  2.224723939E+01  0.00000E+00  9.000E+00
      11     1     3     3     0     0  9.284856608E+00  2.758879906E+00  1.381337247E+02  1.384729066E+02  5.109989100E-04  0.00000E+00  9.000E+00
     -11     1     3     3     0     0 -3.762752118E+00  7.427154262E+00  2.041100453E+01  2.204382068E+01  5.109989100E-04  0.00000E+00  9.000E+00
      21     1     1     2   501   511 -5.522104490E+00 -1.018603417E+01  3.590319922E+01  3.772649791E+01  4.768371582E-07  0.00000E+00  9.000E+00
#rwgt            1           7   17552.087156333295         54217137       25812           0
#pdf   2 -2 0.35372851E-01 0.21862621E-03 0.22247239E+02 0.66719908E+00 0.18823948E+01
</event>
<event>
      5  10011  2.10784E+03  1.00000E+01 -1.00000E+00  1.89064E-01
       2    -1     0     0   501     0  0.000000000E+00  0.000000000E+00  4.942587408E+02  4.942587408E+02  0.000000000E+00  0.00000E+00  9.000E+00
      -2    -1     0     0     0   501  0.000000000E+00  0.000000000E+00 -5.991616711E-01  5.991616711E-01  0.000000000E+00  0.00000E+00  9.000E+00
      23     2     1     2     0     0  0.000000000E+00  0.000000000E+00  4.936595792E+02  4.948579025E+02  3.441748934E+01  0.00000E+00  9.000E+00
      11     1     3     3     0     0  1.014078069E+01  6.555731707E+00  7.054248618E+01  7.156853644E+01  5.109989100E-04  0.00000E+00  9.000E+00
     -11     1     3     3     0     0 -1.014078069E+01 -6.555731707E+00  4.231170930E+02  4.232893661E+02  5.109989100E-04  0.00000E+00  9.000E+00
#rwgt            1           7   14627.657154590335         54217137       25930           0
#pdf   2 -2 0.12356469E+00 0.14979042E-03 0.34417489E+02 0.62707242E+00 0.24095547E+01
</event>
<event>
      6  10011  2.10784E+03  2.69545E+01 -1.00000E+00  1.56336E-01
       1    -1     0     0   511     0  0.000000000E+00  0.000000000E+00  2.275118790E+02  2.275118790E+02  0.000000000E+00  0.00000E+00  9.000E+00
      -1    -1     0     0     0   501  0.000000000E+00  0.000000000E+00 -1.839654032E+01  1.839654032E+01  0.000000000E+00  0.00000E+00  9.000E+00
      23     2     1     2     0     0 -1.420946647E+01 -2.290490535E+01  6.258265001E-01  3.568372925E+01  2.337505611E+01  0.00000E+00  9.000E+00
      11     1     3     3     0     0 -4.461866415E+00 -2.136031636E+01 -7.316830413E+00  2.301537257E+01  5.109989100E-04  0.00000E+00  9.000E+00
     -11     1     3     3     0     0 -9.747600051E+00 -1.544588989E+00  7.942656913E+00  1.266835668E+01  5.109989100E-04  0.00000E+00  9.000E+00
      21     1     1     2   511   501  1.420946647E+01  2.290490535E+01  2.084895122E+02  2.102246901E+02  2.697398305E-06  0.00000E+00  9.000E+00
#rwgt            1           6   7013.7403679274184         54217137       25979           0
#pdf   1 -1 0.29735838E-02 0.28710792E-02 0.23375056E+02 0.85292797E+00 0.80589389E+00
</event>
<event>
      6  10011  2.10784E+03  3.94249E+01 -1.00000E+00  1.45227E-01
      21    -1     0     0   511   501  0.000000000E+00  0.000000000E+00  6.805014440E+01  6.805014440E+01  0.000000000E+00  0.00000E+00  9.000E+00
       2    -1     0     0   501     0  0.000000000E+00  0.000000000E+00 -1.015667919E+02  1.015667919E+02  0.000000000E+00  0.00000E+00  9.000E+00
      23     2     1     2     0     0 -3.375216335E+01  2.037442987E+01 -6.532240158E+01  1.189619078E+02  9.127208466E+01  0.00000E+00  9.000E+00
      11     1     3     3     0     0  1.895272712E+01  4.891818429E+00 -6.076666286E+01  6.384138993E+01  5.109989100E-04  0.00000E+00  9.000E+00
     -11     1     3     3     0     0 -5.270489047E+01  1.548261144E+01 -4.555738723E+00  5.512051789E+01  5.109989100E-04  0.00000E+00  9.000E+00
       2     1     1     2   511     0  3.375216335E+01 -2.037442987E+01  3.180575405E+01  5.065502852E+01  0.000000000E+00  0.00000E+00  9.000E+00
#rwgt            1           4   484.67680647304866         54217137       26024           0
#pdf  -2  2 0.61552570E-02 0.21147049E-01 0.91272085E+02 0.71598881E+00 0.71941468E+00
</event>
<event>
      6  10011  2.10784E+03  2.13791E+01 -1.00000E+00  1.64010E-01
      21    -1     0     0   511   501  0.000000000E+00  0.000000000E+00  7.652681626E+00  7.652681626E+00  0.000000000E+00  0.00000E+00  9.000E+00
       5    -1     0     0   501     0  0.000000000E+00  0.000000000E+00 -8.587231730E+01  8.587231730E+01  0.000000000E+00  0.00000E+00  9.000E+00
      23     2     1     2     0     0  2.114249126E+01 -3.172072777E+00 -3.795932729E+01  4.794035882E+01  2.000751092E+01  0.00000E+00  9.000E+00
      11     1     3     3     0     0 -4.924114150E-01  4.542321974E+00 -1.425827014E+00  4.786244963E+00  5.109989100E-04  0.00000E+00  9.000E+00
     -11     1     3     3     0     0  2.163490267E+01 -7.714394751E+00 -3.653350028E+01  4.315411386E+01  5.109989100E-04  0.00000E+00  9.000E+00
       5     1     1     2   511     0 -2.114249126E+01  3.172072777E+00 -4.026030838E+01  4.558464010E+01  0.000000000E+00  0.00000E+00  9.000E+00
#rwgt            1           1   128.58561866328228         54217137       26059           0
#pdf  -5  5 0.85250120E-03 0.73368755E-02 0.20007511E+02 0.51841981E+00 0.17349902E+00
</event>
<event>
      6  10011  2.10784E+03  1.45082E+01 -1.00000E+00  1.78753E-01
       1    -1     0     0   501     0  0.000000000E+00  0.000000000E+00  5.709588972E+01  5.709588972E+01  0.000000000E+00  0.00000E+00  9.000E+00
      21    -1     0     0   511   501  0.000000000E+00  0.000000000E+00 -5.528731639E+01  5.528731639E+01  0.000000000E+00  0.00000E+00  9.000E+00
      23     2     1     2     0     0  7.119288975E+00  1.264131552E+01  1.416175784E+01  9.332833006E+01  9.109958657E+01  0.00000E+00  9.000E+00
      11     1     3     3     0     0  3.431228832E+01 -3.512369399E-02 -2.610450015E+01  4.311356274E+01  5.109989100E-04  0.00000E+00  9.000E+00
     -11     1     3     3     0     0 -2.719299934E+01  1.267643921E+01  4.026625799E+01  5.021476733E+01  5.109989100E-04  0.00000E+00  9.000E+00
       1     1     1     2   511     0 -7.119288975E+00 -1.264131552E+01 -1.235318451E+01  1.905487605E+01  0.000000000E+00  0.00000E+00  9.000E+00
#rwgt            1           6   232.96928359971020         54217137       26235           0
#pdf   1 -1 0.13269046E-01 0.97726677E-02 0.91099587E+02 0.61167044E+00 0.54713243E+00
</event>
<event>
      5  10011  2.10784E+03  1.00000E+01 -1.00000E+00  1.95696E-01
      -2    -1     0     0     0   501  0.000000000E+00  0.000000000E+00  6.644213809E+01  6.644213809E+01  0.000000000E+00  0.00000E+00  9.000E+00
       2    -1     0     0   501     0  0.000000000E+00  0.000000000E+00 -1.683263238E+00  1.683263238E+00  0.000000000E+00  0.00000E+00  9.000E+00
      23     2     1     2     0     0  0.000000000E+00  0.000000000E+00  6.475887485E+01  6.812540132E+01  2.115084948E+01  0.00000E+00  9.000E+00
      11     1     3     3     0     0 -8.816107295E+00  9.161310849E-01  5.095964231E+01  5.172473478E+01  5.109989100E-04  0.00000E+00  9.000E+00
     -11     1     3     3     0     0  8.816107295E+00 -9.161310849E-01  1.379923254E+01  1.640066654E+01  5.109989100E-04  0.00000E+00  9.000E+00
#rwgt            1           4   28509.875173176151         54217137       26305           0
#pdf  -2  2 0.16610535E-01 0.42081581E-03 0.21150849E+02 0.39931253E+00 0.15537343E+01
</event>
<event>
      5  10011  2.10784E+03  1.00000E+01 -1.00000E+00  1.94928E-01
       2    -1     0     0   501     0  0.000000000E+00  0.000000000E+00  6.645000923E+02  6.645000923E+02  0.000000000E+00  0.00000E+00  9.000E+00
      -2    -1     0     0     0   501  0.000000000E+00  0.000000000E+00 -1.196975926E+00  1.196975926E+00  0.000000000E+00  0.00000E+00  9.000E+00
      23     2     1     2     0     0  0.000000000E+00  0.000000000E+00  6.633031164E+02  6.656970683E+02  5.640534064E+01  0.00000E+00  9.000E+00
      11     1     3     3     0     0 -1.491491946E+01 -2.193609026E+01  4.446948057E+02  4.454852603E+02  5.109989100E-04  0.00000E+00  9.000E+00
     -11     1     3     3     0     0  1.491491946E+01  2.193609026E+01  2.186083107E+02  2.202118080E+02  5.109989100E-04  0.00000E+00  9.000E+00
#rwgt            1           7   287.47541027333313         54217137       26438           0
#pdf   2 -2 0.16612502E+00 0.29924398E-03 0.56405341E+02 0.57129475E+00 0.21809034E+01
</event>
<event>
      6  10011  2.10784E+03  1.79616E+01 -1.00000E+00  1.70310E-01
       2    -1     0     0   501     0  0.000000000E+00  0.000000000E+00  3.020730305E+01  3.020730305E+01  0.000000000E+00  0.00000E+00  9.000E+00
      21    -1     0     0   511   501  0.000000000E+00  0.000000000E+00 -2.859225453E+01  2.859225453E+01  0.000000000E+00  0.00000E+00  9.000E+00
      23     2     1     2     0     0  5.223953727E+00 -1.718513543E+01 -4.753771447E+00  3.974226397E+01  3.513161867E+01  0.00000E+00  9.000E+00
      11     1     3     3     0     0  5.775385277E+00 -1.716424028E+01  1.280197657E+01  2.217784533E+01  5.109989100E-04  0.00000E+00  9.000E+00
     -11     1     3     3     0     0 -5.514315503E-01 -2.089514735E-02 -1.755574801E+01  1.756441863E+01  5.109989100E-04  0.00000E+00  9.000E+00
       2     1     1     2   511     0 -5.223953727E+00  1.718513543E+01  6.368819968E+00  1.905729361E+01  0.000000000E+00  0.00000E+00  9.000E+00
#rwgt            1           7   2089.7923666750389         54217137       26520           0
#pdf   2 -2 0.38941272E-02 0.49522917E-02 0.35131619E+02 0.91899222E+00 0.70829864E+00
</event>
<event>
      5  10011  2.10784E+03  1.00000E+01 -1.00000E+00  1.92460E-01
      -2    -1     0     0     0   501  0.000000000E+00  0.000000000E+00  4.396433376E+00  4.396433376E+00  0.000000000E+00  0.00000E+00  9.000E+00
       2    -1     0     0   501     0  0.000000000E+00  0.000000000E+00 -4.407250353E+02  4.407250353E+02  0.000000000E+00  0.00000E+00  9.000E+00
      23     2     1     2     0     0  0.000000000E+00  0.000000000E+00 -4.363286019E+02  4.451214687E+02  8.803677083E+01  0.00000E+00  9.000E+00
      11     1     3     3     0     0 -2.428094152E+01  2.101992407E+01 -6.595873946E+01  7.336182004E+01  5.109989100E-04  0.00000E+00  9.000E+00
     -11     1     3     3     0     0  2.428094152E+01 -2.101992407E+01 -3.703698625E+02  3.717596487E+02  5.109989100E-04  0.00000E+00  9.000E+00
#rwgt            1           4   1033.8580783855289         54217137       26724           0
#pdf  -2  2 0.10991083E-02 0.11018126E+00 0.88036771E+02 0.14737368E+01 0.61766865E+00
</event>
<event>
      6  10011  2.10784E+03  1.65313E+02 -1.00000E+00  1.14742E-01
       1    -1     0     0   511     0  0.000000000E+00  0.000000000E+00  7.709320187E+02  7.709320187E+02  0.000000000E+00  0.00000E+00  9.000E+00
      -1    -1     0     0     0   501  0.000000000E+00  0.000000000E+00 -4.496646890E+01  4.496646890E+01  0.000000000E+00  0.00000E+00  9.000E+00
      23     2     1     2     0     0 -1.621805861E+02  3.203008808E+01  2.275030551E+02  2.907382000E+02  7.377392382E+01  0.00000E+00  9.000E+00
      11     1     3     3     0     0 -1.164247348E+02  5.599480347E+01  1.564755923E+02  2.029156176E+02  5.109989100E-04  0.00000E+00  9.000E+00
     -11     1     3     3     0     0 -4.575585130E+01 -2.396471539E+01  7.102746279E+01  8.782258242E+01  5.109989100E-04  0.00000E+00  9.000E+00
      21     1     1     2   511   501  1.621805861E+02 -3.203008808E+01  4.984624947E+02  5.251602876E+02  7.629394531E-06  0.00000E+00  9.000E+00
#rwgt            1           6   76.074130157827497         54217137       26999           0
#pdf   1 -1 0.26399739E-01 0.32212628E-02 0.73773924E+02 0.49904048E+00 0.91511595E+00
</event>
<event>
      6  10011  2.10784E+03  1.11574E+01 -1.00000E+00  1.90408E-01
       2    -1     0     0   511     0  0.000000000E+00  0.000000000E+00  1.244523843E+02  1.244523843E+02  0.000000000E+00  0.00000E+00  9.000E+00
      -2    -1     0     0     0   501  0.000000000E+00  0.000000000E+00 -1.506241908E+01  1.506241908E+01  0.000000000E+00  0.00000E+00  9.000E+00
      23     2     1     2     0     0 -9.409587800E+00 -5.995600103E+00  7.753004689E+01  1.057577010E+02  7.105839567E+01  0.00000E+00  9.000E+00
      11     1     3     3     0     0 -1.691068689E+01  4.232248166E+00 -8.079562951E+00  1.921360439E+01  5.109989100E-04  0.00000E+00  9.000E+00
     -11     1     3     3     0     0  7.501099094E+00 -1.022784827E+01  8.560960984E+01  8.654409665E+01  5.109989100E-04  0.00000E+00  9.000E+00
      21     1     1     2   511   501  9.409587800E+00  5.995600103E+00  3.185991831E+01  3.375710233E+01  0.000000000E+00  0.00000E+00  9.000E+00
#rwgt            1           7   14.691459675089119         54217137       27286           0
#pdf   2 -2 0.22633657E-01 0.34857488E-02 0.71058396E+02 0.70842883E+00 0.89560977E+00
</event>
<event>
      5  10011  2.10784E+03  1.00000E+01 -1.00000E+00  1.92068E-01
      -1    -1     0     0     0   501  0.000000000E+00  0.000000000E+00  8.584790445E+00  8.584790445E+00  0.000000000E+00  0.00000E+00  9.000E+00
       1    -1     0     0   501     0  0.000000000E+00  0.000000000E+00 -2.731078341E+01  2.731078341E+01  0.000000000E+00  0.00000E+00  9.000E+00
      23     2     1     2     0     0  0.000000000E+00  0.000000000E+00 -1.872599297E+01  3.589557386E+01  3.062400055E+01  0.00000E+00  9.000E+00
      11     1     3     3     0     0  9.413521959E+00 -1.097140794E+01 -3.447334170E+00  1.486170586E+01  5.109989100E-04  0.00000E+00  9.000E+00
     -11     1     3     3     0     0 -9.413521959E+00  1.097140794E+01 -1.527865880E+01  2.103386800E+01  5.109989100E-04  0.00000E+00  9.000E+00
#rwgt            1           5   2407.1760462468815         54217137       27381           0
#pdf  -1  1 0.21461976E-02 0.68276959E-02 0.30624001E+02 0.94528557E+00 0.68690719E+00
</event>
<event>
      5  10011  2.10784E+03  1.00000E+01 -1.00000E+00  1.19587E-01
       2    -1     0     0   501     0  0.000000000E+00  0.000000000E+00  7.485477451E+02  7.485477451E+02  0.000000000E+00  0.00000E+00  9.000E+00
      -2    -1     0     0     0   501  0.000000000E+00  0.000000000E+00 -2.822261070E-01  2.822261070E-01  0.000000000E+00  0.00000E+00  9.000E+00
      23     2     1     2     0     0  0.000000000E+00  0.000000000E+00  7.482655190E+02  7.488299712E+02  2.906955218E+01  0.00000E+00  9.000E+00
      11     1     3     3     0     0  1.246375256E+01 -7.378459059E+00  3.428693803E+02  3.431751721E+02  5.109989100E-04  0.00000E+00  9.000E+00
     -11     1     3     3     0     0 -1.246375256E+01  7.378459059E+00  4.053961387E+02  4.056547991E+02  5.109989100E-04  0.00000E+00  9.000E+00
#rwgt            1           7   18644.967814209962         54217137       27487           0
#pdf   2 -2 0.18713694E+00 0.70556527E-04 0.29069552E+02 0.57185679E+00 0.28707975E+01
</event>
<event>
      6  10011  2.10784E+03  1.23662E+01 -1.00000E+00  1.85659E-01
       2    -1     0     0   501     0  0.000000000E+00  0.000000000E+00  6.923503409E+00  6.923503409E+00  0.000000000E+00  0.00000E+00  9.000E+00
      21    -1     0     0   511   501  0.000000000E+00  0.000000000E+00 -5.263618782E+01  5.263618782E+01  0.000000000E+00  0.00000E+00  9.000E+00
      23     2     1     2     0     0  1.150848282E+01  4.525214935E+00 -2.903562815E+01  3.879802096E+01  2.256758695E+01  0.00000E+00  9.000E+00
      11     1     3     3     0     0  6.536706709E+00  9.666187388E+00 -3.357208089E+00  1.214226336E+01  5.109989100E-04  0.00000E+00  9.000E+00
     -11     1     3     3     0     0  4.971776116E+00 -5.140972453E+00 -2.567842006E+01  2.665575759E+01  5.109989100E-04  0.00000E+00  9.000E+00
       2     1     1     2   511     0 -1.150848282E+01 -4.525214935E+00 -1.667705626E+01  2.076167028E+01  0.000000000E+00  0.00000E+00  9.000E+00
#rwgt            1           7   14781.796838836295         54217137       27571           0
#pdf   2 -2 0.10701649E-02 0.74360036E-02 0.22567587E+02 0.12072357E+01 0.56699038E+00
</event>
<event>
      5  10011  2.10784E+03  1.00000E+01 -1.00000E+00  1.71608E-01
       2    -1     0     0   501     0  0.000000000E+00  0.000000000E+00  1.826766194E+01  1.826766194E+01  0.000000000E+00  0.00000E+00  9.000E+00
      -2    -1     0     0     0   501  0.000000000E+00  0.000000000E+00 -1.178883642E+01  1.178883642E+01  0.000000000E+00  0.00000E+00  9.000E+00
      23     2     1     2     0     0  0.000000000E+00  0.000000000E+00  6.478825523E+00  3.005649836E+01  2.934992186E+01  0.00000E+00  9.000E+00
      11     1     3     3     0     0  6.232214464E+00  1.323958939E+01  4.373897441E+00  1.527279291E+01  5.109989100E-04  0.00000E+00  9.000E+00
     -11     1     3     3     0     0 -6.232214464E+00 -1.323958939E+01  2.104928082E+00  1.478370545E+01  5.109989100E-04  0.00000E+00  9.000E+00
#rwgt            1           7   10274.108817917826         54217137       27645           0
#pdf   2 -2 0.45669155E-02 0.29472091E-02 0.29349922E+02 0.86310975E+00 0.84376967E+00
</event>
<event>
      5  10011  2.10784E+03  1.00000E+01 -1.00000E+00  1.86991E-01
       1    -1     0     0   501     0  0.000000000E+00  0.000000000E+00  1.537700337E+01  1.537700337E+01  0.000000000E+00  0.00000E+00  9.000E+00
      -1    -1     0     0     0   501  0.000000000E+00  0.000000000E+00 -1.346913494E+02  1.346913494E+02  0.000000000E+00  0.00000E+00  9.000E+00
      23     2     1     2     0     0  0.000000000E+00  0.000000000E+00 -1.193143460E+02  1.500683527E+02  9.101976343E+01  0.00000E+00  9.000E+00
      11     1     3     3     0     0 -1.421280420E+01  4.109054255E+01 -3.749318417E+01  5.741232751E+01  5.109989100E-04  0.00000E+00  9.000E+00
     -11     1     3     3     0     0  1.421280420E+01 -4.109054255E+01 -8.182116182E+01  9.265602523E+01  5.109989100E-04  0.00000E+00  9.000E+00
#rwgt            1           6   66.444062152294123         54217137       27872           0
#pdf   1 -1 0.38442508E-02 0.33672837E-01 0.91019763E+02 0.94357605E+00 0.24615757E+00
</event>
<event>
      5  10011  2.10784E+03  1.00000E+01 -1.00000E+00  1.84259E-01
       2    -1     0     0   501     0  0.000000000E+00  0.000000000E+00  9.718949092E+02  9.718949092E+02  0.000000000E+00  0.00000E+00  9.000E+00
      -2    -1     0     0     0   501  0.000000000E+00  0.000000000E+00 -2.540604679E-01  2.540604679E-01  0.000000000E+00  0.00000E+00  9.000E+00
      23     2     1     2     0     0  0.000000000E+00  0.000000000E+00  9.716408488E+02  9.721489697E+02  3.142738140E+01  0.00000E+00  9.000E+00
      11     1     3     3     0     0 -4.119536580E-01  1.539359260E+00  2.251800614E+00  2.758611791E+00  5.109989100E-04  0.00000E+00  9.000E+00
     -11     1     3     3     0     0  4.119536580E-01 -1.539359260E+00  9.693890481E+02  9.693903579E+02  5.109989100E-04  0.00000E+00  9.000E+00
#rwgt            1           7   8272.7300448756832         54217137       28020           0
#pdf   2 -2 0.24297373E+00 0.63515117E-04 0.31427381E+02 0.49874060E+00 0.30390120E+01
</event>
<event>
      5  10011  2.10784E+03  1.00000E+01 -1.00000E+00  1.89244E-01
      -2    -1     0     0     0   501  0.000000000E+00  0.000000000E+00  3.068922338E+02  3.068922338E+02  0.000000000E+00  0.00000E+00  9.000E+00
       2    -1     0     0   501     0  0.000000000E+00  0.000000000E+00 -6.708491713E+00  6.708491713E+00  0.000000000E+00  0.00000E+00  9.000E+00
      23     2     1     2     0     0  0.000000000E+00  0.000000000E+00  3.001837421E+02  3.136007255E+02  9.074765026E+01  0.00000E+00  9.000E+00
      11     1     3     3     0     0 -4.211647761E+01  1.417795799E+01  1.817589842E+02  1.871126413E+02  5.109989100E-04  0.00000E+00  9.000E+00
     -11     1     3     3     0     0  4.211647761E+01 -1.417795799E+01  1.184247578E+02  1.264880842E+02  5.109989100E-04  0.00000E+00  9.000E+00
#rwgt            1           4   1013.8510669976926         54217137       28046           0
#pdf  -2  2 0.76723058E-01 0.16771229E-02 0.90747650E+02 0.15013708E+00 0.13455952E+01
</event>
<event>
      6  10011  2.10784E+03  1.57076E+02 -1.00000E+00  1.15603E-01
       3    -1     0     0   501     0  0.000000000E+00  0.000000000E+00  1.574467339E+02  1.574467339E+02  0.000000000E+00  0.00000E+00  9.000E+00
      -3    -1     0     0     0   511  0.000000000E+00  0.000000000E+00 -1.963795497E+02  1.963795497E+02  0.000000000E+00  0.00000E+00  9.000E+00
      23     2     1     2     0     0  1.624965887E+01 -1.562329314E+02  2.922095956E+01  1.826021108E+02  8.841315589E+01  0.00000E+00  9.000E+00
      11     1     3     3     0     0  3.462805585E+00 -7.107470693E+01 -3.090006858E+01  7.757847141E+01  5.109989100E-04  0.00000E+00  9.000E+00
     -11     1     3     3     0     0  1.278685328E+01 -8.515822446E+01  6.012102815E+01  1.050236394E+02  5.109989100E-04  0.00000E+00  9.000E+00
      21     1     1     2   501   511 -1.624965887E+01  1.562329314E+02 -6.815377538E+01  1.712241728E+02  2.523185073E-06  0.00000E+00  9.000E+00
#rwgt            1           8   562.63743357859664         54217137       28121           0
#pdf   3 -3 0.12987559E-01 0.94042956E-02 0.88413156E+02 0.41074768E+00 0.49709954E+00
</event>
<event>
      6  10011  2.10784E+03  1.07137E+01 -1.00000E+00  1.92352E-01
      21    -1     0     0   511   501  0.000000000E+00  0.000000000E+00  4.874261216E+01  4.874261216E+01  0.000000000E+00  0.00000E+00  9.000E+00
       3    -1     0     0   501     0  0.000000000E+00  0.000000000E+00 -1.279472107E+02  1.279472107E+02  0.000000000E+00  0.00000E+00  9.000E+00
      23     2     1     2     0     0 -7.706653645E+00  7.442543750E+00  6.096369740E+00  9.071866981E+01  8.987729057E+01  0.00000E+00  9.000E+00
      11     1     3     3     0     0 -1.886363443E+01 -2.385275479E+00  4.511779107E+01  4.896060982E+01  5.109989100E-04  0.00000E+00  9.000E+00
     -11     1     3     3     0     0  1.115698078E+01  9.827819229E+00 -3.902142133E+01  4.175805999E+01  5.109989100E-04  0.00000E+00  9.000E+00
       3     1     1     2   511     0  7.706653645E+00 -7.442543750E+00 -8.530096828E+01  8.597115306E+01  0.000000000E+00  0.00000E+00  9.000E+00
#rwgt            1           3   138.69562662434097         54217137       28159           0
#pdf  -3  3 0.12016804E-01 0.10503426E-01 0.89877291E+02 0.43104293E+00 0.46660439E+00
</event>
<event>
      5  10011  2.10784E+03  1.00000E+01 -1.00000E+00  1.60599E-01
       1    -1     0     0   501     0  0.000000000E+00  0.000000000E+00  2.983687803E+02  2.983687803E+02  0.000000000E+00  0.00000E+00  9.000E+00
      -1    -1     0     0     0   501  0.000000000E+00  0.000000000E+00 -1.067581372E+00  1.067581372E+00  0.000000000E+00  0.00000E+00  9.000E+00
      23     2     1     2     0     0  0.000000000E+00  0.000000000E+00  2.973011989E+02  2.994363617E+02  3.569498294E+01  0.00000E+00  9.000E+00
      11     1     3     3     0     0  7.387724958E-01 -3.064724116E+00  2.960146474E+02  2.960314338E+02  5.109989100E-04  0.00000E+00  9.000E+00
     -11     1     3     3     0     0 -7.387724958E-01  3.064724116E+00  1.286551516E+00  3.404927866E+00  5.109989100E-04  0.00000E+00  9.000E+00
#rwgt            1           6   371.98213979317103         54217137       28221           0
#pdf   1 -1 0.74592195E-01 0.26689534E-03 0.35694983E+02 0.39625288E+00 0.20225995E+01
</event>
<event>
      6  10011  2.10784E+03  1.34942E+01 -1.00000E+00  1.81818E-01
      21    -1     0     0   511   501  0.000000000E+00  0.000000000E+00  1.575119008E+00  1.575119008E+00  0.000000000E+00  0.00000E+00  9.000E+00
       2    -1     0     0   501     0  0.000000000E+00  0.000000000E+00 -1.862467056E+03  1.862467056E+03  0.000000000E+00  0.00000E+00  9.000E+00
      23     2     1     2     0     0  8.527917626E+00  1.045786549E+01 -1.684803970E+03  1.687437915E+03  9.327491235E+01  0.00000E+00  9.000E+00
      11     1     3     3     0     0 -9.552043615E+00 -1.896038432E+01 -1.445466046E+03  1.445621951E+03  5.109989100E-04  0.00000E+00  9.000E+00
     -11     1     3     3     0     0  1.807996124E+01  2.941824981E+01 -2.393379242E+02  2.418159638E+02  5.109989100E-04  0.00000E+00  9.000E+00
       2     1     1     2   511     0 -8.527917626E+00 -1.045786549E+01 -1.760879674E+02  1.766042598E+02  0.000000000E+00  0.00000E+00  9.000E+00
#rwgt            1           4   9125.9933123713636         54217137       28638           0
#pdf  -2  2 0.32585088E-03 0.41718705E+00 0.93274912E+02 0.23553471E+01 0.20301720E+00
</event>
<event>
      5  10011  2.10784E+03  1.00000E+01 -1.00000E+00  1.95333E-01
      -2    -1     0     0     0   501  0.000000000E+00  0.000000000E+00  1.662764752E+00  1.662764752E+00  0.000000000E+00  0.00000E+00  9.000E+00
       2    -1     0     0   501     0  0.000000000E+00  0.000000000E+00 -1.239848677E+03  1.239848677E+03  0.000000000E+00  0.00000E+00  9.000E+00
      23     2     1     2     0     0  0.000000000E+00  0.000000000E+00 -1.238185912E+03  1.241511441E+03  9.080917744E+01  0.00000E+00  9.000E+00
      11     1     3     3     0     0 -2.120592303E+01 -3.701188781E+01 -8.317764329E+02  8.328695008E+02  5.109989100E-04  0.00000E+00  9.000E+00
     -11     1     3     3     0     0  2.120592303E+01  3.701188781E+01 -4.064094790E+02  4.086419406E+02  5.109989100E-04  0.00000E+00  9.000E+00
#rwgt            1           4   7642.9016782526624         54217137       28707           0
#pdf  -2  2 0.41569119E-03 0.30996217E+00 0.90809177E+02 0.21431485E+01 0.35459565E+00
</event>
<event>
      5  10011  2.10784E+03  1.00000E+01 -1.00000E+00  1.82346E-01
      -2    -1     0     0     0   501  0.000000000E+00  0.000000000E+00  4.030257266E-01  4.030257266E-01  0.000000000E+00  0.00000E+00  9.000E+00
       2    -1     0     0   501     0  0.000000000E+00  0.000000000E+00 -2.675523346E+02  2.675523346E+02  0.000000000E+00  0.00000E+00  9.000E+00
      23     2     1     2     0     0  0.000000000E+00  0.000000000E+00 -2.671493089E+02  2.679553603E+02  2.076829064E+01  0.00000E+00  9.000E+00
      11     1     3     3     0     0  1.846584583E+00 -6.807192327E+00 -2.319044675E+02  2.320117018E+02  5.109989100E-04  0.00000E+00  9.000E+00
     -11     1     3     3     0     0 -1.846584583E+00  6.807192327E+00 -3.524484137E+01  3.594365848E+01  5.109989100E-04  0.00000E+00  9.000E+00
#rwgt            1           4   83400.652689977302         54217137       28799           0
#pdf  -2  2 0.10075643E-03 0.66888084E-01 0.20768291E+02 0.23069825E+01 0.66351949E+00
</event>
<event>
      5  10011  2.10784E+03  1.00000E+01 -1.00000E+00  1.84434E-01
       2    -1     0     0   501     0  0.000000000E+00  0.000000000E+00  9.363914025E+01  9.363914025E+01  0.000000000E+00  0.00000E+00  9.000E+00
      -2    -1     0     0     0   501  0.000000000E+00  0.000000000E+00 -2.393142680E+00  2.393142680E+00  0.000000000E+00  0.00000E+00  9.000E+00
      23     2     1     2     0     0  0.000000000E+00  0.000000000E+00  9.124599757E+01  9.603228293E+01  2.993939365E+01  0.00000E+00  9.000E+00
      11     1     3     3     0     0  7.382167079E+00 -3.883944357E+00  8.549363105E+01  8.589960631E+01  5.109989100E-04  0.00000E+00  9.000E+00
     -11     1     3     3     0     0 -7.382167079E+00  3.883944357E+00  5.752366522E+00  1.013267662E+01  5.109989100E-04  0.00000E+00  9.000E+00
#rwgt            1           7   4034.0048568405164         54217137       28851           0
#pdf   2 -2 0.23409785E-01 0.59828567E-03 0.29939394E+02 0.68338969E+00 0.14860439E+01
</event>
<event>
      5  10011  2.10784E+03  1.00000E+01 -1.00000E+00  1.95695E-01
       1    -1     0     0   501     0  0.000000000E+00  0.000000000E+00  2.982517103E+02  2.982517103E+02  0.000000000E+00  0.00000E+00  9.000E+00
      -1    -1     0     0     0   501  0.000000000E+00  0.000000000E+00 -7.144262992E+00  7.144262992E+00  0.000000000E+00  0.00000E+00  9.000E+00
      23     2     1     2     0     0  0.000000000E+00  0.000000000E+00  2.911074473E+02  3.053959733E+02  9.232093275E+01  0.00000E+00  9.000E+00
      11     1     3     3     0     0 -1.926794876E+00 -9.451671687E+00 -3.773064258E+00  1.035773384E+01  5.109989100E-04  0.00000E+00  9.000E+00
     -11     1     3     3     0     0  1.926794876E+00  9.451671687E+00  2.948805116E+02  2.950382395E+02  5.109989100E-04  0.00000E+00  9.000E+00
#rwgt            1           6   659.09094982718034         54217137       28959           0
#pdf   1 -1 0.74562928E-01 0.17860657E-02 0.92320933E+02 0.38748330E+00 0.12117850E+01
</event>
<event>
      6  10011  2.10784E+03  1.32783E+01 -1.00000E+00  1.82515E-01
      -2    -1     0     0     0   501  0.000000000E+00  0.000000000E+00  2.201638123E+01  2.201638123E+01  0.000000000E+00  0.00000E+00  9.000E+00
      21    -1     0     0   501   511  0.000000000E+00  0.000000000E+00 -2.160380241E+01  2.160380241E+01  0.000000000E+00  0.00000E+00  9.000E+00
      23     2     1     2     0     0 -6.008835934E+00  1.184096179E+01  1.050872784E+01  2.693945493E+01  2.095200194E+01  0.00000E+00  9.000E+00
      11     1     3     3     0     0 -3.887689566E+00  1.230488533E+01  1.627951331E+01  2.077370663E+01  5.109989100E-04  0.00000E+00  9.000E+00
     -11     1     3     3     0     0 -2.121146368E+00 -4.639235481E-01 -5.770785462E+00  6.165748299E+00  5.109989100E-04  0.00000E+00  9.000E+00
      -2     1     1     2     0   511  6.008835934E+00 -1.184096179E+01 -1.009614902E+01  1.668072871E+01  0.000000000E+00  0.00000E+00  9.000E+00
#rwgt            1           4   43369.599710107570         54217137       29103           0
#pdf  -2  2 0.39538712E-02 0.17347966E-02 0.20952002E+02 0.71426946E+00 0.10391540E+01
</event>
<event>
      5  10011  2.10784E+03  1.00000E+01 -1.00000E+00  1.95335E-01
      -2    -1     0     0     0   501  0.000000000E+00  0.000000000E+00  1.901617339E+01  1.901617339E+01  0.000000000E+00  0.00000E+00  9.000E+00
       2    -1     0     0   501     0  0.000000000E+00  0.000000000E+00 -1.751616018E+01  1.751616018E+01  0.000000000E+00  0.00000E+00  9.000E+00
      23     2     1     2     0     0  0.000000000E+00  0.000000000E+00  1.500013206E+00  3.653233357E+01  3.650152540E+01  0.00000E+00  9.000E+00
      11     1     3     3     0     0 -2.340953919E-01  1.396142146E+01 -1.101211443E+01  1.778321552E+01  5.109989100E-04  0.00000E+00  9.000E+00
     -11     1     3     3     0     0  2.340953919E-01 -1.396142146E+01  1.251212763E+01  1.874911806E+01  5.109989100E-04  0.00000E+00  9.000E+00
#rwgt            1           4   1215.9204091456174         54217137       29140           0
#pdf  -2  2 0.47540433E-02 0.43790400E-02 0.36501525E+02 0.72379050E+00 0.89725622E+00
</event>
<event>
      5  10011  2.10784E+03  1.00000E+01 -1.00000E+00  1.50322E-01
      -2    -1     0     0     0   501  0.000000000E+00  0.000000000E+00  2.113292420E+00  2.113292420E+00  0.000000000E+00  0.00000E+00  9.000E+00
       2    -1     0     0   501     0  0.000000000E+00  0.000000000E+00 -5.818285714E+01  5.818285714E+01  0.000000000E+00  0.00000E+00  9.000E+00
      23     2     1     2     0     0  0.000000000E+00  0.000000000E+00 -5.606956472E+01  6.029614956E+01  2.217723075E+01  0.00000E+00  9.000E+00
      11     1     3     3     0     0 -1.065577438E+00 -5.303840652E+00 -5.435149799E+01  5.462006513E+01  5.109989100E-04  0.00000E+00  9.000E+00
     -11     1     3     3     0     0  1.065577438E+00  5.303840652E+00 -1.718066736E+00  5.676084434E+00  5.109989100E-04  0.00000E+00  9.000E+00
#rwgt            1           4   215989.13753649135         54217137       29185           0
#pdf  -2  2 0.52832311E-03 0.14545714E-01 0.22177231E+02 0.14329053E+01 0.69366362E+00
</event>
<event>
      5  10011 -2.10784E+03  1.00000E+01 -1.00000E+00  1.54846E-01
       2    -1     0     0   501     0  0.000000000E+00  0.000000000E+00  2.328691446E+01  2.328691446E+01  0.000000000E+00  0.00000E+00  9.000E+00
      -2    -1     0     0     0   501  0.000000000E+00  0.000000000E+00 -5.663547472E+00  5.663547472E+00  0.000000000E+00  0.00000E+00  9.000E+00
      23     2     1     2     0     0  0.000000000E+00  0.000000000E+00  1.762336699E+01  2.895046194E+01  2.296837352E+01  0.00000E+00  9.000E+00
      11     1     3     3     0     0  4.942738991E+00  1.025618711E+01  6.914089237E+00  1.332008532E+01  5.109989100E-04  0.00000E+00  9.000E+00
     -11     1     3     3     0     0 -4.942738991E+00 -1.025618711E+01  1.070927776E+01  1.563037661E+01  5.109989100E-04  0.00000E+00  9.000E+00
#rwgt            1           7  -49675.123297592836         54217137       29215           0
#pdf   2 -2 0.58217286E-02 0.14158869E-02 0.22968374E+02 0.79335188E+00 0.10456372E+01
</event>
<event>
      6  10011  2.10784E+03  1.58836E+01 -1.00000E+00  1.75068E-01
      -2    -1     0     0     0   501  0.000000000E+00  0.000000000E+00  1.220211910E+02  1.220211910E+02  0.000000000E+00  0.00000E+00  9.000E+00
       2    -1     0     0   511     0  0.000000000E+00  0.000000000E+00 -2.798022422E+01  2.798022422E+01  0.000000000E+00  0.00000E+00  9.000E+00
      23     2     1     2     0     0  1.199075707E+01  1.041677237E+01  9.607907732E+01  1.339876307E+02  9.202830363E+01  0.00000E+00  9.000E+00
      11     1     3     3     0     0 -3.805743527E+01  1.665179548E+01  3.197690533E+01  5.242302116E+01  5.109989100E-04  0.00000E+00  9.000E+00
     -11     1     3     3     0     0  5.004819234E+01 -6.235023109E+00  6.410217199E+01  8.156460951E+01  5.109989100E-04  0.00000E+00  9.000E+00
      21     1     1     2   511   501 -1.199075707E+01 -1.041677237E+01 -2.038110531E+00  1.601378457E+01  3.551356580E-07  0.00000E+00  9.000E+00
#rwgt            1           4   1310.0959782054447         54217137       29249           0
#pdf  -2  2 0.28339339E-01 0.46695297E-02 0.92028304E+02 0.32088447E+00 0.97736872E+00
</event>
<event>
      5  10011  2.10784E+03  1.00000E+01 -1.00000E+00  1.90487E-01
      -2    -1     0     0     0   501  0.000000000E+00  0.000000000E+00  2.559409753E+00  2.559409753E+00  0.000000000E+00  0.00000E+00  9.000E+00
       2    -1     0     0   501     0  0.000000000E+00  0.000000000E+00 -8.077232028E+02  8.077232028E+02  0.000000000E+00  0.00000E+00  9.000E+00
      23     2     1     2     0     0  0.000000000E+00  0.000000000E+00 -8.051637930E+02  8.102826125E+02  9.093502389E+01  0.00000E+00  9.000E+00
      11     1     3     3     0     0 -1.218464367E+01 -1.050636187E+01 -7.815110698E+02  7.816766604E+02  5.109989100E-04  0.00000E+00  9.000E+00
     -11     1     3     3     0     0  1.218464367E+01  1.050636187E+01 -2.365272320E+01  2.860595212E+01  5.109989100E-04  0.00000E+00  9.000E+00
#rwgt            1           4   369.69499967174835         54217137       29355           0
#pdf  -2  2 0.63985244E-03 0.20193080E+00 0.90935024E+02 0.18247795E+01 0.51075213E+00
</event>
<event>
      5  10011  2.10784E+03  1.00000E+01 -1.00000E+00  1.55364E-01
       1    -1     0     0   501     0  0.000000000E+00  0.000000000E+00  1.651268003E+02  1.651268003E+02  0.000000000E+00  0.00000E+00  9.000E+00
      -1    -1     0     0     0   501  0.000000000E+00  0.000000000E+00 -2.673224688E+00  2.673224688E+00  0.000000000E+00  0.00000E+00  9.000E+00
      23     2     1     2     0     0  0.000000000E+00  0.000000000E+00  1.624535756E+02  1.678000249E+02  4.202004470E+01  0.00000E+00  9.000E+00
      11     1     3     3     0     0 -4.713440133E+00  1.427255271E+01  2.260515660E+01  2.714618544E+01  5.109989100E-04  0.00000E+00  9.000E+00
     -11     1     3     3     0     0  4.713440133E+00 -1.427255271E+01  1.398484190E+02  1.406538395E+02  5.109989100E-04  0.00000E+00  9.000E+00
#rwgt            1           6   790.30171318543808         54217137       29561           0
#pdf   1 -1 0.41281700E-01 0.66830617E-03 0.42020045E+02 0.44669550E+00 0.15405040E+01
</event>
<event>
      6  10011  2.10784E+03  1.23063E+01 -1.00000E+00  1.85878E-01
      -1    -1     0     0     0   501  0.000000000E+00  0.000000000E+00  1.539129192E+01  1.539129192E+01  0.000000000E+00  0.00000E+00  9.000E+00
       1    -1     0     0   511     0  0.000000000E+00  0.000000000E+00 -1.829515187E+02  1.829515187E+02  0.000000000E+00  0.00000E+00  9.000E+00
      23     2     1     2     0     0 -1.959919486E-01 -1.230473380E+01 -1.302777487E+02  1.590817860E+02  9.046147206E+01  0.00000E+00  9.000E+00
      11     1     3     3     0     0  6.303814807E+00  1.230588733E+01  9.647806382E+00  1.685980760E+01  5.109989100E-04  0.00000E+00  9.000E+00
     -11     1     3     3     0     0 -6.499806756E+00 -2.461062113E+01 -1.399255551E+02  1.422219784E+02  5.109989100E-04  0.00000E+00  9.000E+00
      21     1     1     2   511   501  1.959919486E-01  1.230473380E+01 -3.728247809E+01  3.926102468E+01  0.000000000E+00  0.00000E+00  9.000E+00
#rwgt            1           5   478.31408071836057         54217137       29697           0
#pdf  -1  1 0.35676435E-02 0.35839825E-01 0.90461472E+02 0.89598806E+00 0.46462154E+00
</event>
<event>
      5  10011  2.10784E+03  1.00000E+01 -1.00000E+00  1.90640E-01
      -2    -1     0     0     0   501  0.000000000E+00  0.000000000E+00  7.686921704E+01  7.686921704E+01  0.000000000E+00  0.00000E+00  9.000E+00
       2    -1     0     0   501     0  0.000000000E+00  0.000000000E+00 -2.665404485E+00  2.665404485E+00  0.000000000E+00  0.00000E+00  9.000E+00
      23     2     1     2     0     0  0.000000000E+00  0.000000000E+00  7.420381256E+01  7.953462152E+01  2.862778761E+01  0.00000E+00  9.000E+00
      11     1     3     3     0     0 -1.260805883E+00  2.344232679E+00  7.617558645E+01  7.622207705E+01  5.109989100E-04  0.00000E+00  9.000E+00
     -11     1     3     3     0     0  1.260805883E+00 -2.344232679E+00 -1.971773897E+00  3.312544474E+00  5.109989100E-04  0.00000E+00  9.000E+00
#rwgt            1           4   2321.0475718533448         54217137       29772           0
#pdf  -2  2 0.19217304E-01 0.66635112E-03 0.28627788E+02 0.38091416E+00 0.14668635E+01
</event>
<event>
      6  10011  2.10784E+03  1.04361E+01 -1.00000E+00  1.93631E-01
       2    -1     0     0   501     0  0.000000000E+00  0.000000000E+00  1.975213553E+02  1.975213553E+02  0.000000000E+00  0.00000E+00  9.000E+00
      -2    -1     0     0     0   511  0.000000000E+00  0.000000000E+00 -1.712771375E+00  1.712771375E+00  0.000000000E+00  0.00000E+00  9.000E+00
      23     2     1     2     0     0  1.043520920E+01 -1.336479163E-01  1.640788477E+02  1.658322163E+02  2.166897006E+01  0.00000E+00  9.000E+00
      11     1     3     3     0     0  9.485039101E+00  8.611648284E+00  1.302428941E+02  1.308714557E+02  5.109989100E-04  0.00000E+00  9.000E+00
     -11     1     3     3     0     0  9.501700959E-01 -8.745296200E+00  3.383595360E+01  3.496076065E+01  5.109989100E-04  0.00000E+00  9.000E+00
      21     1     1     2   501   511 -1.043520920E+01  1.336479163E-01  3.172973627E+01  3.340191038E+01  7.539457465E-07  0.00000E+00  9.000E+00
#rwgt            1           7   143070.96956865201         54217137       30093           0
#pdf   2 -2 0.37154387E-01 0.19746333E-03 0.21668970E+02 0.66640459E+00 0.19244701E+01
</event>
<event>
      6  10011  2.10784E+03  1.41810E+01 -1.00000E+00  1.79706E-01
       2    -1     0     0   501     0  0.000000000E+00  0.000000000E+00  1.470882088E+03  1.470882088E+03  0.000000000E+00  0.00000E+00  9.000E+00
      21    -1     0     0   511   501  0.000000000E+00  0.000000000E+00 -8.180435826E-01  8.180435826E-01  0.000000000E+00  0.00000E+00  9.000E+00
      23     2     1     2     0     0 -1.258906735E+01  6.528063525E+00  1.326979629E+03  1.327914700E+03  4.776417110E+01  0.00000E+00  9.000E+00
      11     1     3     3     0     0  4.570406166E+00 -1.473304700E+01  8.588035096E+02  8.589420349E+02  5.109989100E-04  0.00000E+00  9.000E+00
     -11     1     3     3     0     0 -1.715947352E+01  2.126111053E+01  4.681761191E+02  4.689726653E+02  5.109989100E-04  0.00000E+00  9.000E+00
       2     1     1     2   511     0  1.258906735E+01 -6.528063525E+00  1.430844160E+02  1.437854315E+02  0.000000000E+00  0.00000E+00  9.000E+00
#rwgt            1           7   8609.9271272110400         54217137       30159           0
#pdf   2 -2 0.31813646E+00 0.11204980E-03 0.47764171E+02 0.36904131E+00 0.28977196E+01
</event>
<event>
      5  10011  2.10784E+03  1.00000E+01 -1.00000E+00  1.93582E-01
       2    -1     0     0   501     0  0.000000000E+00  0.000000000E+00  1.074696597E+00  1.074696597E+00  0.000000000E+00  0.00000E+00  9.000E+00
      -2    -1     0     0     0   501  0.000000000E+00  0.000000000E+00 -1.116809876E+02  1.116809876E+02  0.000000000E+00  0.00000E+00  9.000E+00
      23     2     1     2     0     0  0.000000000E+00  0.000000000E+00 -1.106062910E+02  1.127556842E+02  2.191101799E+01  0.00000E+00  9.000E+00
      11     1     3     3     0     0  2.788219977E+00 -3.451112720E+00 -3.755314036E+00  5.812635668E+00  5.109989100E-04  0.00000E+00  9.000E+00
     -11     1     3     3     0     0 -2.788219977E+00  3.451112720E+00 -1.068509770E+02  1.069430485E+02  5.109989100E-04  0.00000E+00  9.000E+00
#rwgt            1           7   5100.5168683520360         54217137       30238           0
#pdf   2 -2 0.26867415E-03 0.27920247E-01 0.21911018E+02 0.17873835E+01 0.31014690E+00
</event>
<event>
      5  10011  2.10784E+03  1.00000E+01 -1.00000E+00  1.93053E-01
       2    -1     0     0   501     0  0.000000000E+00  0.000000000E+00  1.250991850E+03  1.250991850E+03  0.000000000E+00  0.00000E+00  9.000E+00
      -2    -1     0     0     0   501  0.000000000E+00  0.000000000E+00 -1.648495114E+00  1.648495114E+00  0.000000000E+00  0.00000E+00  9.000E+00
      23     2     1     2     0     0  0.000000000E+00  0.000000000E+00  1.249343355E+03  1.252640345E+03  9.082409267E+01  0.00000E+00  9.000E+00
      11     1     3     3     0     0 -3.513268545E+01  2.657809243E+01  4.726138343E+02  4.746625506E+02  5.109989100E-04  0.00000E+00  9.000E+00
     -11     1     3     3     0     0  3.513268545E+01 -2.657809243E+01  7.767295209E+02  7.779777948E+02  5.109989100E-04  0.00000E+00  9.000E+00
#rwgt            1           7   842.24736864047509         54217137       30466           0
#pdf   2 -2 0.31274796E+00 0.41212378E-03 0.90824093E+02 0.35043410E+00 0.21500334E+01
</event>
<event>
      5  10011  2.10784E+03  1.00000E+01 -1.00000E+00  1.50589E-01
      -2    -1     0     0     0   501  0.000000000E+00  0.000000000E+00  5.270829316E-01  5.270829316E-01  0.000000000E+00  0.00000E+00  9.000E+00
       2    -1     0     0   501     0  0.000000000E+00  0.000000000E+00 -2.290908152E+02  2.290908152E+02  0.000000000E+00  0.00000E+00  9.000E+00
      23     2     1     2     0     0  0.000000000E+00  0.000000000E+00 -2.285637323E+02  2.296178982E+02  2.197724810E+01  0.00000E+00  9.000E+00
      11     1     3     3     0     0  3.076960403E+00  2.070336876E+00 -2.223545533E+02  2.223854792E+02  5.109989100E-04  0.00000E+00  9.000E+00
     -11     1     3     3     0     0 -3.076960403E+00 -2.070336876E+00 -6.209178990E+00  7.232418965E+00  5.109989100E-04  0.00000E+00  9.000E+00
#rwgt            1           4   20901.780511374000         54217137       30552           0
#pdf  -2  2 0.13177073E-03 0.57272704E-01 0.21977248E+02 0.21776144E+01 0.66480022E+00
</event>
<event>
      6  10011  2.10784E+03  1.51861E+01 -1.00000E+00  1.76875E-01
       2    -1     0     0   501     0  0.000000000E+00  0.000000000E+00  1.212636687E+02  1.212636687E+02  0.000000000E+00  0.00000E+00  9.000E+00
      -2    -1     0     0     0   511  0.000000000E+00  0.000000000E+00 -2.543945971E+01  2.543945971E+01  0.000000000E+00  0.00000E+00  9.000E+00
      23     2     1     2     0     0  8.903180026E+00  1.230252015E+01  9.354764195E+01  1.313473030E+02  9.094137715E+01  0.00000E+00  9.000E+00
      11     1     3     3     0     0 -2.937191401E+01 -2.505151823E+01  4.246516204E+01  5.738970191E+01  5.109989100E-04  0.00000E+00  9.000E+00
     -11     1     3     3     0     0  3.827509404E+01  3.735403839E+01  5.108247991E+01  7.395760111E+01  5.109989100E-04  0.00000E+00  9.000E+00
      21     1     1     2   501   511 -8.903180026E+00 -1.230252015E+01  2.276567072E+00  1.535582542E+01  1.763129170E-07  0.00000E+00  9.000E+00
#rwgt            1           7   686.32074448100525         54217137       30569           0
#pdf   2 -2 0.27727929E-01 0.46604263E-02 0.90941377E+02 0.69972845E+00 0.81169201E+00
</event>
<event>
      5  10011  2.10784E+03  1.00000E+01 -1.00000E+00  1.90579E-01
      -5    -1     0     0     0   501  0.000000000E+00  0.000000000E+00  2.712641613E+01  2.712641613E+01  0.000000000E+00  0.00000E+00  9.000E+00
       5    -1     0     0   501     0  0.000000000E+00  0.000000000E+00 -7.285996471E+01  7.285996471E+01  0.000000000E+00  0.00000E+00  9.000E+00
      23     2     1     2     0     0  0.000000000E+00  0.000000000E+00 -4.573354858E+01  9.998638084E+01  8.891410961E+01  0.00000E+00  9.000E+00
      11     1     3     3     0     0  1.554214534E+01 -2.886112980E+01  1.090477261E+01  3.454615986E+01  5.109989100E-04  0.00000E+00  9.000E+00
     -11     1     3     3     0     0 -1.554214534E+01  2.886112980E+01 -5.663832119E+01  6.544022099E+01  5.109989100E-04  0.00000E+00  9.000E+00
#rwgt            1           1   193.86093854866314         54217137       30649           0
#pdf  -5  5 0.67816040E-02 0.18214991E-01 0.88914110E+02 0.30767977E+00 0.14461805E+00
</event>
<event>
      6  10011  2.10784E+03  4.58787E+01 -1.00000E+00  1.41237E-01
      21    -1     0     0   511   501  0.000000000E+00  0.000000000E+00  4.824505713E+01  4.824505713E+01  0.000000000E+00  0.00000E+00  9.000E+00
       2    -1     0     0   501     0  0.000000000E+00  0.000000000E+00 -3.778487734E+02  3.778487734E+02  0.000000000E+00  0.00000E+00  9.000E+00
      23     2     1     2     0     0 -1.873419110E+01 -4.187940078E+01 -3.594998964E+02  3.713340304E+02  8.089457612E+01  0.00000E+00  9.000E+00
      11     1     3     3     0     0  8.331774302E+00  6.732582933E+00 -3.887855737E+00  1.139568157E+01  5.109989100E-04  0.00000E+00  9.000E+00
     -11     1     3     3     0     0 -2.706596540E+01 -4.861198372E+01 -3.556120407E+02  3.599383488E+02  5.109989100E-04  0.00000E+00  9.000E+00
       2     1     1     2   511     0  1.873419110E+01  4.187940078E+01  2.989618016E+01  5.475980017E+01  0.000000000E+00  0.00000E+00  9.000E+00
#rwgt            1           4   1264.6753633177013         54217137       30758           0
#pdf  -2  2 0.12867326E-02 0.79464019E-01 0.80894576E+02 0.13671198E+01 0.64588476E+00
</event>
<event>
      5  10011  2.10784E+03  1.00000E+01 -1.00000E+00  1.88855E-01
      -2    -1     0     0     0   501  0.000000000E+00  0.000000000E+00  6.918842155E+00  6.918842155E+00  0.000000000E+00  0.00000E+00  9.000E+00
       2    -1     0     0   501     0  0.000000000E+00  0.000000000E+00 -3.049930709E+02  3.049930709E+02  0.000000000E+00  0.00000E+00  9.000E+00
      23     2     1     2     0     0  0.000000000E+00  0.000000000E+00 -2.980742288E+02  3.119119131E+02  9.187380293E+01  0.00000E+00  9.000E+00
      11     1     3     3     0     0 -1.241142706E+01  7.084822365E+00 -8.203807722E-01  1.431472160E+01  5.109989100E-04  0.00000E+00  9.000E+00
     -11     1     3     3     0     0  1.241142706E+01 -7.084822365E+00 -2.972538480E+02  2.975971915E+02  5.109989100E-04  0.00000E+00  9.000E+00
#rwgt            1           4   852.00263132178736         54217137       30830           0
#pdf  -2  2 0.17297105E-02 0.76248268E-01 0.91873803E+02 0.12377310E+01 0.64710008E+00
</event>
<event>
      5  10011  2.10784E+03  1.00000E+01 -1.00000E+00  1.88766E-01
      -1    -1     0     0     0   501  0.000000000E+00  0.000000000E+00  2.197870441E+02  2.197870441E+02  0.000000000E+00  0.00000E+00  9.000E+00
       1    -1     0     0   501     0  0.000000000E+00  0.000000000E+00 -1.826811010E+01  1.826811010E+01  0.000000000E+00  0.00000E+00  9.000E+00
      23     2     1     2     0     0  0.000000000E+00  0.000000000E+00  2.015189340E+02  2.380551542E+02  1.267295375E+02  0.00000E+00  9.000E+00
      11     1     3     3     0     0 -1.862560670E+00  6.311553631E+01  9.081008543E+01  1.106052064E+02  5.109989100E-04  0.00000E+00  9.000E+00
     -11     1     3     3     0     0  1.862560670E+00 -6.311553631E+01  1.107088486E+02  1.274499478E+02  5.109989100E-04  0.00000E+00  9.000E+00
#rwgt            1           5   36.677490632549258         54217137       30900           0
#pdf  -1  1 0.54946761E-01 0.45670275E-02 0.12672954E+03 0.15917791E+00 0.91396364E+00
</event>
<event>
      5  10011  2.10784E+03  1.00000E+01 -1.00000E+00  1.75328E-01
       3    -1     0     0   501     0  0.000000000E+00  0.000000000E+00  2.767201600E-01  2.767201600E-01  0.000000000E+00  0.00000E+00  9.000E+00
      -3    -1     0     0     0   501  0.000000000E+00  0.000000000E+00 -3.816941005E+02  3.816941005E+02  0.000000000E+00  0.00000E+00  9.000E+00
      23     2     1     2     0     0  0.000000000E+00  0.000000000E+00 -3.814173803E+02  3.819708207E+02  2.055455692E+01  0.00000E+00  9.000E+00
      11     1     3     3     0     0 -1.722651298E+00 -1.564632061E+00 -4.683920151E+00  5.230172962E+00  5.109989100E-04  0.00000E+00  9.000E+00
     -11     1     3     3     0     0  1.722651298E+00  1.564632061E+00 -3.767334602E+02  3.767406477E+02  5.109989100E-04  0.00000E+00  9.000E+00
#rwgt            1           8   5186.0610970735843         54217137       31016           0
#pdf   3 -3 0.69180040E-04 0.95423525E-01 0.20554557E+02 0.23885986E+01 0.70429365E-01
</event>
<event>
      5  10011  2.10784E+03  1.00000E+01 -1.00000E+00  1.83275E-01
      -4    -1     0     0     0   501  0.000000000E+00  0.000000000E+00  7.664270294E-01  7.664270294E-01  0.000000000E+00  0.00000E+00  9.000E+00
       4    -1     0     0   501     0  0.000000000E+00  0.000000000E+00 -2.206322027E+02  2.206322027E+02  0.000000000E+00  0.00000E+00  9.000E+00
      23     2     1     2     0     0  0.000000000E+00  0.000000000E+00 -2.198657757E+02  2.213986298E+02  2.600757457E+01  0.00000E+00  9.000E+00
      11     1     3     3     0     0  1.061960524E+01 -1.261318930E+00 -1.729116210E+02  1.732420146E+02  5.109989100E-04  0.00000E+00  9.000E+00
     -11     1     3     3     0     0 -1.061960524E+01  1.261318930E+00 -4.695415467E+01  4.815661514E+01  5.109989100E-04  0.00000E+00  9.000E+00
#rwgt            1           2   4485.1800338831299         54217137       31292           0
#pdf  -4  4 0.19160676E-03 0.55158051E-01 0.26007575E+02 0.16202355E+01 0.64010865E-01
</event>
<event>
      5  10011  2.10784E+03  1.00000E+01 -1.00000E+00  1.91966E-01
       1    -1     0     0   501     0  0.000000000E+00  0.000000000E+00  7.545178296E+01  7.545178296E+01  0.000000000E+00  0.00000E+00  9.000E+00
      -1    -1     0     0     0   501  0.000000000E+00  0.000000000E+00 -2.720024560E+01  2.720024560E+01  0.000000000E+00  0.00000E+00  9.000E+00
      23     2     1     2     0     0  0.000000000E+00  0.000000000E+00  4.825153736E+01  1.026520286E+02  9.060479077E+01  0.00000E+00  9.000E+00
      11     1     3     3     0     0  2.848673716E+01  1.078551411E+00 -1.576439696E+01  3.257566084E+01  5.109989100E-04  0.00000E+00  9.000E+00
     -11     1     3     3     0     0 -2.848673716E+01 -1.078551411E+00  6.401593432E+01  7.007636773E+01  5.109989100E-04  0.00000E+00  9.000E+00
#rwgt            1           6   163.76763980850322         54217137       31367           0
#pdf   1 -1 0.18862946E-01 0.68000614E-02 0.90604791E+02 0.55001161E+00 0.66041592E+00
</event>
<event>
      6  10011  2.10784E+03  1.17491E+01 -1.00000E+00  1.87992E-01
       2    -1     0     0   501     0  0.000000000E+00  0.000000000E+00  1.063289100E+03  1.063289100E+03  0.000000000E+00  0.00000E+00  9.000E+00
      -2    -1     0     0     0   511  0.000000000E+00  0.000000000E+00 -4.537535933E-01  4.537535933E-01  0.000000000E+00  0.00000E+00  9.000E+00
      23     2     1     2     0     0 -1.173749635E+01  5.214183151E-01  7.904819128E+02  7.911361158E+02  2.994425735E+01  0.00000E+00  9.000E+00
      11     1     3     3     0     0 -1.767239831E+01  7.526482993E+00  6.806980184E+02  6.809689816E+02  5.109989100E-04  0.00000E+00  9.000E+00
     -11     1     3     3     0     0  5.934901959E+00 -7.005064677E+00  1.097838944E+02  1.101671342E+02  5.109989100E-04  0.00000E+00  9.000E+00
      21     1     1     2   501   511  1.173749635E+01 -5.214183151E-01  2.723534340E+02  2.726067382E+02  3.814697266E-06  0.00000E+00  9.000E+00
#rwgt            1           7   7595.3721208108600         54217137       31503           0
#pdf   2 -2 0.18404249E+00 0.76125300E-04 0.29944257E+02 0.57409648E+00 0.28350706E+01
</event>
<event>
      5  10011  2.10784E+03  1.00000E+01 -1.00000E+00  1.82364E-01
      -2    -1     0     0     0   501  0.000000000E+00  0.000000000E+00  9.583036884E-01  9.583036884E-01  0.000000000E+00  0.00000E+00  9.000E+00
       2    -1     0     0   501     0  0.000000000E+00  0.000000000E+00 -1.448249085E+02  1.448249085E+02  0.000000000E+00  0.00000E+00  9.000E+00
      23     2     1     2     0     0  0.000000000E+00  0.000000000E+00 -1.438666049E+02  1.457832122E+02  2.356151472E+01  0.00000E+00  9.000E+00
      11     1     3     3     0     0  3.730452157E+00 -1.104002781E+01 -6.123839804E+01  6.233730731E+01  5.109989100E-04  0.00000E+00  9.000E+00
     -11     1     3     3     0     0 -3.730452157E+00  1.104002781E+01 -8.262820681E+01  8.344590492E+01  5.109989100E-04  0.00000E+00  9.000E+00
#rwgt            1           4   100012.57588237742         54217137       31597           0
#pdf  -2  2 0.23957592E-03 0.36206227E-01 0.23561515E+02 0.18635735E+01 0.66807835E+00
</event>
<event>
      6  10011  2.10784E+03  3.87640E+01 -1.00000E+00  1.45687E-01
       2    -1     0     0   501     0  0.000000000E+00  0.000000000E+00  7.172840166E+02  7.172840166E+02  0.000000000E+00  0.00000E+00  9.000E+00
      21    -1     0     0   511   501  0.000000000E+00  0.000000000E+00 -7.296445006E+00  7.296445006E+00  0.000000000E+00  0.00000E+00  9.000E+00
      23     2     1     2     0     0 -3.179347550E+00  3.863337159E+01  3.808098997E+02  3.931282248E+02  8.961571138E+01  0.00000E+00  9.000E+00
      11     1     3     3     0     0 -1.287657493E+01 -2.042292941E+01  2.238095153E+02  2.251079771E+02  5.109989100E-04  0.00000E+00  9.000E+00
     -11     1     3     3     0     0  9.697227378E+00  5.905630100E+01  1.570003845E+02  1.680202477E+02  5.109989100E-04  0.00000E+00  9.000E+00
       2     1     1     2   511     0  3.179347550E+00 -3.863337159E+01  3.291776719E+02  3.314522369E+02  0.000000000E+00  0.00000E+00  9.000E+00
#rwgt            1           7   5861.8832761804933         54217137       31719           0
#pdf   2 -2 0.88791514E-01 0.14132431E-02 0.89615711E+02 0.63672249E+00 0.13379260E+01
</event>
<event>
      5  10011  2.10784E+03  1.00000E+01 -1.00000E+00  1.75572E-01
       1    -1     0     0   501     0  0.000000000E+00  0.000000000E+00  1.390280802E+03  1.390280802E+03  0.000000000E+00  0.00000E+00  9.000E+00
      -1    -1     0     0     0   501  0.000000000E+00  0.000000000E+00 -1.490275513E+00  1.490275513E+00  0.000000000E+00  0.00000E+00  9.000E+00
      23     2     1     2     0     0  0.000000000E+00  0.000000000E+00  1.388790526E+03  1.391771077E+03  9.103628805E+01  0.00000E+00  9.000E+00
      11     1     3     3     0     0 -2.196125175E+01 -1.811728529E+01  1.514271653E+02  1.540802356E+02  5.109989100E-04  0.00000E+00  9.000E+00
     -11     1     3     3     0     0  2.196125175E+01  1.811728529E+01  1.237363361E+03  1.237690842E+03  5.109989100E-04  0.00000E+00  9.000E+00
#rwgt            1           6   185.00172560692934         54217137       31845           0
#pdf   1 -1 0.34757020E+00 0.37256888E-03 0.91036288E+02 0.10154503E+00 0.22283104E+01
</event>
<event>
      5  10011  2.10784E+03  1.00000E+01 -1.00000E+00  1.94151E-01
       2    -1     0     0   501     0  0.000000000E+00  0.000000000E+00  5.382855684E+02  5.382855684E+02  0.000000000E+00  0.00000E+00  9.000E+00
      -2    -1     0     0     0   501  0.000000000E+00  0.000000000E+00 -4.087995200E+00  4.087995200E+00  0.000000000E+00  0.00000E+00  9.000E+00
      23     2     1     2     0     0  0.000000000E+00  0.000000000E+00  5.341975732E+02  5.423735636E+02  9.381916265E+01  0.00000E+00  9.000E+00
      11     1     3     3     0     0 -1.441193835E+01  2.157288437E+01  4.930348508E+02  4.937169811E+02  5.109989100E-04  0.00000E+00  9.000E+00
     -11     1     3     3     0     0  1.441193835E+01 -2.157288437E+01  4.116272240E+01  4.865658252E+01  5.109989100E-04  0.00000E+00  9.000E+00
#rwgt            1           7   2356.5201799774832         54217137       31892           0
#pdf   2 -2 0.13457139E+00 0.10219988E-02 0.93819163E+02 0.59144765E+00 0.15316667E+01
</event>
<event>
      5  10011  2.10784E+03  1.00000E+01 -1.00000E+00  1.90954E-01
       4    -1     0     0   501     0  0.000000000E+00  0.000000000E+00  1.797620265E+02  1.797620265E+02  0.000000000E+00  0.00000E+00  9.000E+00
      -4    -1     0     0     0   501  0.000000000E+00  0.000000000E+00 -7.076060923E-01  7.076060923E-01  0.000000000E+00  0.00000E+00  9.000E+00
      23     2     1     2     0     0  0.000000000E+00  0.000000000E+00  1.790544204E+02  1.804696326E+02  2.255665801E+01  0.00000E+00  9.000E+00
      11     1     3     3     0     0 -1.087832074E+01  1.398943003E+00  6.850219019E+01  6.937467092E+01  5.109989100E-04  0.00000E+00  9.000E+00
     -11     1     3     3     0     0  1.087832074E+01 -1.398943003E+00  1.105522302E+02  1.110949616E+02  5.109989100E-04  0.00000E+00  9.000E+00
#rwgt            1           9   3282.3401538325279         54217137       31987           0
#pdf   4 -4 0.44940507E-01 0.17690152E-03 0.22556658E+02 0.81041072E-01 0.15716039E+01
</event>
<event>
      5  10011  2.10784E+03  1.00000E+01 -1.00000E+00  1.63111E-01
      -3    -1     0     0     0   501  0.000000000E+00  0.000000000E+00  9.565846720E+01  9.565846720E+01  0.000000000E+00  0.00000E+00  9.000E+00
       3    -1     0     0   501     0  0.000000000E+00  0.000000000E+00 -2.219077268E+01  2.219077268E+01  0.000000000E+00  0.00000E+00  9.000E+00
      23     2     1     2     0     0  0.000000000E+00  0.000000000E+00  7.346769453E+01  1.178492399E+02  9.214630324E+01  0.00000E+00  9.000E+00
      11     1     3     3     0     0 -2.644085365E+00 -4.251858854E+01  1.429175185E+01  4.493412656E+01  5.109989100E-04  0.00000E+00  9.000E+00
     -11     1     3     3     0     0  2.644085365E+00  4.251858854E+01  5.917594269E+01  7.291511333E+01  5.109989100E-04  0.00000E+00  9.000E+00
#rwgt            1           3   512.40770641295808         54217137       32064           0
#pdf  -3  3 0.23914617E-01 0.55476932E-02 0.92146303E+02 0.27309620E+00 0.66167797E+00
</event>
<event>
      5  10011  2.10784E+03  1.00000E+01 -1.00000E+00  9.93336E-02
      -2    -1     0     0     0   501  0.000000000E+00  0.000000000E+00  4.225268165E+00  4.225268165E+00  0.000000000E+00  0.00000E+00  9.000E+00
       2    -1     0     0   501     0  0.000000000E+00  0.000000000E+00 -2.603036346E+01  2.603036346E+01  0.000000000E+00  0.00000E+00  9.000E+00
      23     2     1     2     0     0  0.000000000E+00  0.000000000E+00 -2.180509530E+01  3.025563163E+01  2.097477209E+01  0.00000E+00  9.000E+00
      11     1     3     3     0     0  7.748790655E-01 -3.082158362E+00  3.513937493E+00  4.737920926E+00  5.109989100E-04  0.00000E+00  9.000E+00
     -11     1     3     3     0     0 -7.748790655E-01  3.082158362E+00 -2.531903279E+01  2.551771070E+01  5.109989100E-04  0.00000E+00  9.000E+00
#rwgt            1           4   77911.130075499401         54217137       32161           0
#pdf  -2  2 0.10563170E-02 0.65075909E-02 0.20974772E+02 0.11295198E+01 0.76793775E+00
</event>
<event>
      5  10011  2.10784E+03  1.00000E+01 -1.00000E+00  1.94922E-01
       2    -1     0     0   501     0  0.000000000E+00  0.000000000E+00  3.222340053E+02  3.222340053E+02  0.000000000E+00  0.00000E+00  9.000E+00
      -2    -1     0     0     0   501  0.000000000E+00  0.000000000E+00 -6.702969784E+00  6.702969784E+00  0.000000000E+00  0.00000E+00  9.000E+00
      23     2     1     2     0     0  0.000000000E+00  0.000000000E+00  3.155310355E+02  3.289369751E+02  9.294998226E+01  0.00000E+00  9.000E+00
      11     1     3     3     0     0 -3.663984370E+01 -4.394683802E+00  2.577427543E+02  2.603711174E+02  5.109989100E-04  0.00000E+00  9.000E+00
     -11     1     3     3     0     0  3.663984370E+01  4.394683802E+00  5.778828124E+01  6.856585769E+01  5.109989100E-04  0.00000E+00  9.000E+00
#rwgt            1           7   1178.8799348885991         54217137       32206           0
#pdf   2 -2 0.80558501E-01 0.16757424E-02 0.92949982E+02 0.64332460E+00 0.12558212E+01
</event>
<event>
      5  10011  2.10784E+03  1.00000E+01 -1.00000E+00  1.63507E-01
       1    -1     0     0   501     0  0.000000000E+00  0.000000000E+00  3.105573523E+01  3.105573523E+01  0.000000000E+00  0.00000E+00  9.000E+00
      -1    -1     0     0     0   501  0.000000000E+00  0.000000000E+00 -1.386567934E+01  1.386567934E+01  0.000000000E+00  0.00000E+00  9.000E+00
      23     2     1     2     0     0  0.000000000E+00  0.000000000E+00  1.719005589E+01  4.492141457E+01  4.150223447E+01  0.00000E+00  9.000E+00
      11     1     3     3     0     0  7.246505597E-01 -1.845137441E+01 -1.652283275E+00  1.853937368E+01  5.109989100E-04  0.00000E+00  9.000E+00
     -11     1     3     3     0     0 -7.246505597E-01  1.845137441E+01  1.884233917E+01  2.638204089E+01  5.109989100E-04  0.00000E+00  9.000E+00
#rwgt            1           6   404.69491284664764         54217137       32261           0
#pdf   1 -1 0.77639338E-02 0.34664198E-02 0.41502234E+02 0.68277401E+00 0.82128618E+00
</event>
<event>
      5  10011  2.10784E+03  1.00000E+01 -1.00000E+00  1.90547E-01
      -2    -1     0     0     0   501  0.000000000E+00  0.000000000E+00  1.722479914E-01  1.722479914E-01  0.000000000E+00  0.00000E+00  9.000E+00
       2    -1     0     0   501     0  0.000000000E+00  0.000000000E+00 -7.336983390E+02  7.336983390E+02  0.000000000E+00  0.00000E+00  9.000E+00
      23     2     1     2     0     0  0.000000000E+00  0.000000000E+00 -7.335260911E+02  7.338705870E+02  2.248359982E+01  0.00000E+00  9.000E+00
      11     1     3     3     0     0  2.009707746E+00 -7.824577750E+00 -1.115940058E+02  1.118860361E+02  5.109989100E-04  0.00000E+00  9.000E+00
     -11     1     3     3     0     0 -2.009707746E+00  7.824577750E+00 -6.219320853E+02  6.219845509E+02  5.109989100E-04  0.00000E+00  9.000E+00
#rwgt            1           4   205063.90893602031         54217137       32480           0
#pdf  -2  2 0.43061998E-04 0.18342458E+00 0.22483600E+02 0.30130774E+01 0.58642170E+00
</event>
<event>
      6  10011  2.10784E+03  2.49883E+01 -1.00000E+00  1.58762E-01
       2    -1     0     0   511     0  0.000000000E+00  0.000000000E+00  1.663389786E+02  1.663389786E+02  0.000000000E+00  0.00000E+00  9.000E+00
      -2    -1     0     0     0   501  0.000000000E+00  0.000000000E+00 -2.508468378E+01  2.508468378E+01  0.000000000E+00  0.00000E+00  9.000E+00
      23     2     1     2     0     0 -2.447476870E+01 -5.039693777E+00  7.602185246E+01  1.215689249E+02  9.151649373E+01  0.00000E+00  9.000E+00
      11     1     3     3     0     0  1.961595360E+01 -2.043272850E+01  6.868435048E+01  7.429550479E+01  5.109989100E-04  0.00000E+00  9.000E+00
     -11     1     3     3     0     0 -4.409072230E+01  1.539303472E+01  7.337501980E+00  4.727342008E+01  5.109989100E-04  0.00000E+00  9.000E+00
      21     1     1     2   511   501  2.447476870E+01  5.039693777E+00  6.523244238E+01  6.985473753E+01  0.000000000E+00  0.00000E+00  9.000E+00
#rwgt            1           7   1133.9218866071544         54217137       32506           0
#pdf   2 -2 0.23826623E-01 0.54923257E-02 0.91516494E+02 0.71016105E+00 0.75442387E+00
</event>
<event>
      6  10011  2.10784E+03  3.11508E+01 -1.00000E+00  1.51909E-01
       1    -1     0     0   501     0  0.000000000E+00  0.000000000E+00  3.130322085E+02  3.130322085E+02  0.000000000E+00  0.00000E+00  9.000E+00
      21    -1     0     0   511   501  0.000000000E+00  0.000000000E+00 -1.400928745E+01  1.400928745E+01  0.000000000E+00  0.00000E+00  9.000E+00
      23     2     1     2     0     0 -1.681272668E+01 -2.622416051E+01  2.594848305E+02  2.767062699E+02  9.090439046E+01  0.00000E+00  9.000E+00
      11     1     3     3     0     0  3.472490967E+01  3.253092708E+00  1.233921740E+02  1.282264815E+02  5.109989100E-04  0.00000E+00  9.000E+00
     -11     1     3     3     0     0 -5.153763635E+01 -2.947725322E+01  1.360926565E+02  1.484797884E+02  5.109989100E-04  0.00000E+00  9.000E+00
       1     1     1     2   511     0  1.681272668E+01  2.622416051E+01  3.953809064E+01  5.033522608E+01  0.000000000E+00  0.00000E+00  9.000E+00
#rwgt            1           6   975.01094905740229         54217137       32606           0
#pdf   1 -1 0.63404480E-01 0.20364315E-02 0.90904390E+02 0.40480707E+00 0.11445053E+01
</event>
<event>
      5  10011  2.10784E+03  1.00000E+01 -1.00000E+00  1.81200E-01
       2    -1     0     0   501     0  0.000000000E+00  0.000000000E+00  4.818876984E+00  4.818876984E+00  0.000000000E+00  0.00000E+00  9.000E+00
      -2    -1     0     0     0   501  0.000000000E+00  0.000000000E+00 -2.527573665E+01  2.527573665E+01  0.000000000E+00  0.00000E+00  9.000E+00
      23     2     1     2     0     0  0.000000000E+00  0.000000000E+00 -2.045685967E+01  3.009461364E+01  2.207266777E+01  0.00000E+00  9.000E+00
      11     1     3     3     0     0 -1.378218342E+00  2.716893727E-01  4.696488013E+00  4.902071075E+00  5.109989100E-04  0.00000E+00  9.000E+00
     -11     1     3     3     0     0  1.378218342E+00 -2.716893727E-01 -2.515334768E+01  2.519254256E+01  5.109989100E-04  0.00000E+00  9.000E+00
#rwgt            1           7   58058.944388409829         54217137       32633           0
#pdf   2 -2 0.12047192E-02 0.63189342E-02 0.22072668E+02 0.11616029E+01 0.60290114E+00
</event>
<event>
      6  10011  2.10784E+03  2.83528E+01 -1.00000E+00  1.54759E-01
      -2    -1     0     0     0   511  0.000000000E+00  0.000000000E+00  1.036774276E+01  1.036774276E+01  0.000000000E+00  0.00000E+00  9.000E+00
       2    -1     0     0   501     0  0.000000000E+00  0.000000000E+00 -9.998698599E+02  9.998698599E+02  0.000000000E+00  0.00000E+00  9.000E+00
      23     2     1     2     0     0  2.825366642E+01  2.368731019E+00 -9.721067531E+02  9.769738199E+02  9.317953001E+01  0.00000E+00  9.000E+00
      11     1     3     3     0     0  1.471608644E+01  3.527837026E+01 -1.774325805E+02  1.815032981E+02  5.109989100E-04  0.00000E+00  9.000E+00
     -11     1     3     3     0     0  1.353757999E+01 -3.290963924E+01 -7.946741727E+02  7.954705219E+02  5.109989100E-04  0.00000E+00  9.000E+00
      21     1     1     2   501   511 -2.825366642E+01 -2.368731019E+00 -1.739536404E+01  3.326378275E+01  1.390207266E-06  0.00000E+00  9.000E+00
#rwgt            1           4   1516.5513399506508         54217137       32823           0
#pdf  -2  2 0.58203525E-03 0.23308363E+00 0.93179530E+02 0.18994654E+01 0.46688706E+00
</event>
<event>
      6  10011  2.10784E+03  3.01719E+01 -1.00000E+00  1.52863E-01
       2    -1     0     0   501     0  0.000000000E+00  0.000000000E+00  3.936947579E+02  3.936947579E+02  0.000000000E+00  0.00000E+00  9.000E+00
      21    -1     0     0   511   501  0.000000000E+00  0.000000000E+00 -3.231807436E+01  3.231807436E+01  0.000000000E+00  0.00000E+00  9.000E+00
      23     2     1     2     0     0 -2.779814746E+01 -1.173060612E+01  3.726892672E+02  3.937898797E+02  1.235428482E+02  0.00000E+00  9.000E+00
      11     1     3     3     0     0  1.875522947E+01 -5.565907749E+01  2.303726349E+02  2.377419661E+02  5.109989100E-04  0.00000E+00  9.000E+00
     -11     1     3     3     0     0 -4.655337693E+01  4.392847137E+01  1.423166324E+02  1.560479136E+02  5.109989100E-04  0.00000E+00  9.000E+00
       2     1     1     2   511     0  2.779814746E+01  1.173060612E+01 -1.131258367E+01  3.222295256E+01  0.000000000E+00  0.00000E+00  9.000E+00
#rwgt            1           7   886.48537210453878         54217137       32932           0
#pdf   2 -2 0.93074404E-01 0.25622705E-02 0.12354285E+03 0.62794108E+00 0.10903166E+01
</event>
<event>
      6  10011  2.10784E+03  1.00647E+01 -1.00000E+00  1.95427E-01
      21    -1     0     0   511   501  0.000000000E+00  0.000000000E+00  1.276175434E+01  1.276175434E+01  0.000000000E+00  0.00000E+00  9.000E+00
       4    -1     0     0   501     0  0.000000000E+00  0.000000000E+00 -4.760470534E+01  4.760470534E+01  0.000000000E+00  0.00000E+00  9.000E+00
      23     2     1     2     0     0 -5.357008762E+00 -8.520551112E+00 -3.937191545E+01  4.932975487E+01  2.796389915E+01  0.00000E+00  9.000E+00
      11     1     3     3     0     0 -8.411106752E+00  1.920868320E+00 -1.520087627E-01  8.628995238E+00  5.109989100E-04  0.00000E+00  9.000E+00
     -11     1     3     3     0     0  3.054097990E+00 -1.044141943E+01 -3.921990669E+01  4.070075964E+01  5.109989100E-04  0.00000E+00  9.000E+00
       4     1     1     2   511     0  5.357008762E+00  8.520551112E+00  4.528964448E+00  1.103670481E+01  0.000000000E+00  0.00000E+00  9.000E+00
#rwgt            1           2   1157.1303815242420         54217137       32988           0
#pdf  -4  4 0.11711820E-02 0.10432565E-01 0.27963899E+02 0.84546392E+00 0.28541098E+00
</event>
<event>
      5  10011  2.10784E+03  1.00000E+01 -1.00000E+00  1.88367E-01
       2    -1     0     0   501     0  0.000000000E+00  0.000000000E+00  9.992744928E+02  9.992744928E+02  0.000000000E+00  0.00000E+00  9.000E+00
      -2    -1     0     0     0   501  0.000000000E+00  0.000000000E+00 -3.699340693E-01  3.699340693E-01  0.000000000E+00  0.00000E+00  9.000E+00
      23     2     1     2     0     0  0.000000000E+00  0.000000000E+00  9.989045587E+02  9.996444268E+02  3.845338370E+01  0.00000E+00  9.000E+00
      11     1     3     3     0     0  1.205261836E+01 -1.454090749E+01  4.058582115E+02  4.062974174E+02  5.109989100E-04  0.00000E+00  9.000E+00
     -11     1     3     3     0     0 -1.205261836E+01  1.454090749E+01  5.930463472E+02  5.933470094E+02  5.109989100E-04  0.00000E+00  9.000E+00
#rwgt            1           7   5211.7315289169519         54217137       33322           0
#pdf   2 -2 0.24981862E+00 0.92483517E-04 0.38453384E+02 0.47981074E+00 0.28917438E+01
</event>
<event>
      5  10011  2.10784E+03  1.00000E+01 -1.00000E+00  8.81209E-02
       1    -1     0     0   501     0  0.000000000E+00  0.000000000E+00  5.664752597E+00  5.664752597E+00  0.000000000E+00  0.00000E+00  9.000E+00
      -1    -1     0     0     0   501  0.000000000E+00  0.000000000E+00 -1.865694694E+01  1.865694694E+01  0.000000000E+00  0.00000E+00  9.000E+00
      23     2     1     2     0     0  0.000000000E+00  0.000000000E+00 -1.299219434E+01  2.432169954E+01  2.056083545E+01  0.00000E+00  9.000E+00
      11     1     3     3     0     0  3.075045092E+00 -4.657352487E+00 -1.670897894E+01  1.761637908E+01  5.109989100E-04  0.00000E+00  9.000E+00
     -11     1     3     3     0     0 -3.075045092E+00  4.657352487E+00  3.716784592E+00  6.705320460E+00  5.109989100E-04  0.00000E+00  9.000E+00
#rwgt            1           6   9439.8106270832341         54217137       33436           0
#pdf   1 -1 0.14161881E-02 0.46642367E-02 0.20560835E+02 0.10472037E+01 0.65283223E+00
</event>
<event>
      6  10011  2.10784E+03  1.16024E+01 -1.00000E+00  1.88573E-01
       3    -1     0     0   501     0  0.000000000E+00  0.000000000E+00  1.119741452E+02  1.119741452E+02  0.000000000E+00  0.00000E+00  9.000E+00
      21    -1     0     0   511   501  0.000000000E+00  0.000000000E+00 -3.522574914E+00  3.522574914E+00  0.000000000E+00  0.00000E+00  9.000E+00
      23     2     1     2     0     0 -1.093863610E+01 -3.868164871E+00  9.017052005E+01  9.384462421E+01  2.326960137E+01  0.00000E+00  9.000E+00
      11     1     3     3     0     0  6.050354637E+00 -4.039116173E+00  1.372341195E+01  1.553233036E+01  5.109989100E-04  0.00000E+00  9.000E+00
     -11     1     3     3     0     0 -1.698899074E+01  1.709513015E-01  7.644710810E+01  7.831229385E+01  5.109989100E-04  0.00000E+00  9.000E+00
       3     1     1     2   511     0  1.093863610E+01  3.868164871E+00  1.828105025E+01  2.165209591E+01  0.000000000E+00  0.00000E+00  9.000E+00
#rwgt            1           8   1496.7711184582158         54217137       33533           0
#pdf   3 -3 0.20584959E-01 0.41100576E-03 0.23269601E+02 0.27718974E+00 0.14477555E+01
</event>
<event>
      5  10011  2.10784E+03  1.00000E+01 -1.00000E+00  1.92842E-01
      -2    -1     0     0     0   501  0.000000000E+00  0.000000000E+00  6.613592699E+00  6.613592699E+00  0.000000000E+00  0.00000E+00  9.000E+00
       2    -1     0     0   501     0  0.000000000E+00  0.000000000E+00 -3.430265947E+02  3.430265947E+02  0.000000000E+00  0.00000E+00  9.000E+00
      23     2     1     2     0     0  0.000000000E+00  0.000000000E+00 -3.364130020E+02  3.496401874E+02  9.526044683E+01  0.00000E+00  9.000E+00
      11     1     3     3     0     0  2.899681069E+00 -2.421400932E+01 -3.183736770E+02  3.193063178E+02  5.109989100E-04  0.00000E+00  9.000E+00
     -11     1     3     3     0     0 -2.899681069E+00  2.421400932E+01 -1.803932505E+01  3.033386962E+01  5.109989100E-04  0.00000E+00  9.000E+00
#rwgt            1           4   1646.6986687428441         54217137       33622           0
#pdf  -2  2 0.16533982E-02 0.85756649E-01 0.95260447E+02 0.12670460E+01 0.63851408E+00
</event>
<event>
      5  10011  2.10784E+03  1.00000E+01 -1.00000E+00  1.93025E-01
       3    -1     0     0   501     0  0.000000000E+00  0.000000000E+00  1.302090079E+01  1.302090079E+01  0.000000000E+00  0.00000E+00  9.000E+00
      -3    -1     0     0     0   501  0.000000000E+00  0.000000000E+00 -1.592359470E+02  1.592359470E+02  0.000000000E+00  0.00000E+00  9.000E+00
      23     2     1     2     0     0  0.000000000E+00  0.000000000E+00 -1.462150462E+02  1.722568478E+02  9.106910493E+01  0.00000E+00  9.000E+00
      11     1     3     3     0     0 -2.601247435E+01  2.773398406E+01 -2.572289518E+01  4.590740714E+01  5.109989100E-04  0.00000E+00  9.000E+00
     -11     1     3     3     0     0  2.601247435E+01 -2.773398406E+01 -1.204921510E+02  1.263494406E+02  5.109989100E-04  0.00000E+00  9.000E+00
#rwgt            1           8   515.32821372545834         54217137       33728           0
#pdf   3 -3 0.32552252E-02 0.39808987E-01 0.91069105E+02 0.85608537E+00 0.17956836E+00
</event>
<event>
      5  10011  2.10784E+03  1.00000E+01 -1.00000E+00  1.94445E-01
       2    -1     0     0   501     0  0.000000000E+00  0.000000000E+00  3.489381880E+01  3.489381880E+01  0.000000000E+00  0.00000E+00  9.000E+00
      -2    -1     0     0     0   501  0.000000000E+00  0.000000000E+00 -6.647480439E+00  6.647480439E+00  0.000000000E+00  0.00000E+00  9.000E+00
      23     2     1     2     0     0  0.000000000E+00  0.000000000E+00  2.824633836E+01  4.154129924E+01  3.046020210E+01  0.00000E+00  9.000E+00
      11     1     3     3     0     0  3.392568842E+00  5.134506535E-01 -6.113499084E+00  7.010565329E+00  5.109989100E-04  0.00000E+00  9.000E+00
     -11     1     3     3     0     0 -3.392568842E+00 -5.134506535E-01  3.435983745E+01  3.453073391E+01  5.109989100E-04  0.00000E+00  9.000E+00
#rwgt            1           7   7222.8057712548334         54217137       33937           0
#pdf   2 -2 0.87234547E-02 0.16618701E-02 0.30460202E+02 0.76228604E+00 0.10480659E+01
</event>
<event>
      5  10011  2.10784E+03  1.00000E+01 -1.00000E+00  1.82809E-01
       2    -1     0     0   501     0  0.000000000E+00  0.000000000E+00  2.831526560E+02  2.831526560E+02  0.000000000E+00  0.00000E+00  9.000E+00
      -2    -1     0     0     0   501  0.000000000E+00  0.000000000E+00 -4.642649697E-01  4.642649697E-01  0.000000000E+00  0.00000E+00  9.000E+00
      23     2     1     2     0     0  0.000000000E+00  0.000000000E+00  2.826883910E+02  2.836169210E+02  2.293101474E+01  0.00000E+00  9.000E+00
      11     1     3     3     0     0 -2.177670065E+00 -5.339935188E+00  1.877928130E+01  1.964481003E+01  5.109989100E-04  0.00000E+00  9.000E+00
     -11     1     3     3     0     0  2.177670065E+00  5.339935188E+00  2.639091097E+02  2.639721109E+02  5.109989100E-04  0.00000E+00  9.000E+00
#rwgt            1           7   11251.330443719955         54217137       34134           0
#pdf   2 -2 0.70788164E-01 0.11606624E-03 0.22931015E+02 0.66226181E+00 0.22920518E+01
</event>
<event>
      5  10011  2.10784E+03  1.00000E+01 -1.00000E+00  1.86003E-01
      -2    -1     0     0     0   501  0.000000000E+00  0.000000000E+00  6.382412066E+00  6.382412066E+00  0.000000000E+00  0.00000E+00  9.000E+00
       2    -1     0     0   501     0  0.000000000E+00  0.000000000E+00 -3.542164105E+02  3.542164105E+02  0.000000000E+00  0.00000E+00  9.000E+00
      23     2     1     2     0     0  0.000000000E+00  0.000000000E+00 -3.478339985E+02  3.605988226E+02  9.509479676E+01  0.00000E+00  9.000E+00
      11     1     3     3     0     0  1.257772144E+01  4.218585509E+01 -2.420579297E+02  2.460282235E+02  5.109989100E-04  0.00000E+00  9.000E+00
     -11     1     3     3     0     0 -1.257772144E+01 -4.218585509E+01 -1.057760688E+02  1.145705991E+02  5.109989100E-04  0.00000E+00  9.000E+00
#rwgt            1           4   2181.4972624475972         54217137       34254           0
#pdf  -2  2 0.15956030E-02 0.88554103E-01 0.95094797E+02 0.12851619E+01 0.63607243E+00
</event>
<event>
      5  10011  2.10784E+03  1.00000E+01 -1.00000E+00  1.80219E-01
       2    -1     0     0   501     0  0.000000000E+00  0.000000000E+00  1.040248939E+03  1.040248939E+03  0.000000000E+00  0.00000E+00  9.000E+00
      -2    -1     0     0     0   501  0.000000000E+00  0.000000000E+00 -1.509362899E-01  1.509362899E-01  0.000000000E+00  0.00000E+00  9.000E+00
      23     2     1     2     0     0  0.000000000E+00  0.000000000E+00  1.040098002E+03  1.040399875E+03  2.506083122E+01  0.00000E+00  9.000E+00
      11     1     3     3     0     0 -7.313600482E+00  7.409362467E+00  2.305615361E+02  2.307964673E+02  5.109989100E-04  0.00000E+00  9.000E+00
     -11     1     3     3     0     0  7.313600482E+00 -7.409362467E+00  8.095364663E+02  8.096034077E+02  5.109989100E-04  0.00000E+00  9.000E+00
#rwgt            1           7   27298.018129643722         54217137       34403           0
#pdf   2 -2 0.26006223E+00 0.37734072E-04 0.25060831E+02 0.48635477E+00 0.32565137E+01
</event>
<event>
      5  10011 -2.10784E+03  1.00000E+01 -1.00000E+00  1.94842E-01
      -2    -1     0     0     0   501  0.000000000E+00  0.000000000E+00  1.302306790E+02  1.302306790E+02  0.000000000E+00  0.00000E+00  9.000E+00
       2    -1     0     0   501     0  0.000000000E+00  0.000000000E+00 -1.047501480E+00  1.047501480E+00  0.000000000E+00  0.00000E+00  9.000E+00
      23     2     1     2     0     0  0.000000000E+00  0.000000000E+00  1.291831775E+02  1.312781805E+02  2.335952302E+01  0.00000E+00  9.000E+00
      11     1     3     3     0     0 -6.109809193E+00 -6.934371945E+00  1.047263098E+02  1.051333213E+02  5.109989100E-04  0.00000E+00  9.000E+00
     -11     1     3     3     0     0  6.109809193E+00  6.934371945E+00  2.445686772E+01  2.614485918E+01  5.109989100E-04  0.00000E+00  9.000E+00
#rwgt            1           4  -51298.906899387934         54217137       34498           0
#pdf  -2  2 0.32557670E-01 0.26187537E-03 0.23359523E+02 0.28588083E+00 0.18355575E+01
</event>
<event>
      6  10011  2.10784E+03  1.03871E+01 -1.00000E+00  1.93863E-01
       2    -1     0     0   511     0  0.000000000E+00  0.000000000E+00  5.328881120E+01  5.328881120E+01  0.000000000E+00  0.00000E+00  9.000E+00
      -2    -1     0     0     0   501  0.000000000E+00  0.000000000E+00 -5.143462464E+01  5.143462464E+01  0.000000000E+00  0.00000E+00  9.000E+00
      23     2     1     2     0     0 -3.508108073E+00  9.776737210E+00 -2.706452739E+00  9.337923716E+01  9.276025892E+01  0.00000E+00  9.000E+00
      11     1     3     3     0     0  3.802330704E+01  1.644536857E+01  1.952990422E+01  4.579999110E+01  5.109989100E-04  0.00000E+00  9.000E+00
     -11     1     3     3     0     0 -4.153141511E+01 -6.668631361E+00 -2.223635696E+01  4.757924607E+01  5.109989100E-04  0.00000E+00  9.000E+00
      21     1     1     2   511   501  3.508108073E+00 -9.776737210E+00  4.560639306E+00  1.134419868E+01  2.457562462E-07  0.00000E+00  9.000E+00
#rwgt            1           7   3275.7956044046286         54217137       34545           0
#pdf   2 -2 0.11263700E-01 0.11936111E-01 0.92760259E+02 0.79189500E+00 0.52006055E+00
</event>
<event>
      5  10011  2.10784E+03  1.00000E+01 -1.00000E+00  1.88166E-01
      -3    -1     0     0     0   501  0.000000000E+00  0.000000000E+00  2.921540047E+00  2.921540047E+00  0.000000000E+00  0.00000E+00  9.000E+00
       3    -1     0     0   501     0  0.000000000E+00  0.000000000E+00 -6.366868613E+02  6.366868613E+02  0.000000000E+00  0.00000E+00  9.000E+00
      23     2     1     2     0     0  0.000000000E+00  0.000000000E+00 -6.337653212E+02  6.396084013E+02  8.625789617E+01  0.00000E+00  9.000E+00
      11     1     3     3     0     0 -1.382404498E+01  3.935877819E+00 -1.536079108E+01  2.103685473E+01  5.109989100E-04  0.00000E+00  9.000E+00
     -11     1     3     3     0     0  1.382404498E+01 -3.935877819E+00 -6.184045302E+02  6.185715466E+02  5.109989100E-04  0.00000E+00  9.000E+00
#rwgt            1           3   194.03894083558953         54217137       34678           0
#pdf  -3  3 0.73038501E-03 0.15917172E+00 0.86257896E+02 0.16081821E+01 0.29234517E-01
</event>
<event>
      6  10011  2.10784E+03  1.97286E+01 -1.00000E+00  1.66855E-01
       2    -1     0     0   501     0  0.000000000E+00  0.000000000E+00  5.910060439E+01  5.910060439E+01  0.000000000E+00  0.00000E+00  9.000E+00
      21    -1     0     0   511   501  0.000000000E+00  0.000000000E+00 -2.075558650E+01  2.075558650E+01  0.000000000E+00  0.00000E+00  9.000E+00
      23     2     1     2     0     0 -1.948522147E+01  3.089577661E+00 -5.234650726E+00  3.201889516E+01  2.466959127E+01  0.00000E+00  9.000E+00
      11     1     3     3     0     0  2.070960799E+00 -1.789899966E+00 -9.169912581E+00  9.569739679E+00  5.109989100E-04  0.00000E+00  9.000E+00
     -11     1     3     3     0     0 -2.155618226E+01  4.879477626E+00  3.935261855E+00  2.244915548E+01  5.109989100E-04  0.00000E+00  9.000E+00
       2     1     1     2   511     0  1.948522147E+01 -3.089577661E+00  4.357966862E+01  4.783729573E+01  0.000000000E+00  0.00000E+00  9.000E+00
#rwgt            1           7   47071.380923083030         54217137       34721           0
#pdf   2 -2 0.26147361E-02 0.36367720E-02 0.24669591E+02 0.96268336E+00 0.75750225E+00
</event>
<event>
      5  10011  2.10784E+03  1.00000E+01 -1.00000E+00  1.92663E-01
      -1    -1     0     0     0   501  0.000000000E+00  0.000000000E+00  3.894576491E+00  3.894576491E+00  0.000000000E+00  0.00000E+00  9.000E+00
       1    -1     0     0   501     0  0.000000000E+00  0.000000000E+00 -5.382045471E+02  5.382045471E+02  0.000000000E+00  0.00000E+00  9.000E+00
      23     2     1     2     0     0  0.000000000E+00  0.000000000E+00 -5.343099706E+02  5.420991236E+02  9.156590581E+01  0.00000E+00  9.000E+00
      11     1     3     3     0     0  4.233301235E+01  1.654826667E+01 -2.996627044E+02  3.030901936E+02  5.109989100E-04  0.00000E+00  9.000E+00
     -11     1     3     3     0     0 -4.233301235E+01 -1.654826667E+01 -2.346472663E+02  2.390089300E+02  5.109989100E-04  0.00000E+00  9.000E+00
#rwgt            1           5   1959.3599472155959         54217137       34769           0
#pdf  -1  1 0.97364412E-03 0.13455114E+00 0.91565906E+02 0.15475896E+01 0.30946368E+00
</event>
<event>
      6  10011  2.10784E+03  1.02609E+01 -1.00000E+00  1.94466E-01
       2    -1     0     0   501     0  0.000000000E+00  0.000000000E+00  1.627632418E+01  1.627632418E+01  0.000000000E+00  0.00000E+00  9.000E+00
      21    -1     0     0   511   501  0.000000000E+00  0.000000000E+00 -2.601380896E+01  2.601380896E+01  0.000000000E+00  0.00000E+00  9.000E+00
      23     2     1     2     0     0  4.670170319E+00  9.136540257E+00 -1.468647152E+01  3.089806009E+01  2.517361342E+01  0.00000E+00  9.000E+00
      11     1     3     3     0     0  3.491903202E+00 -4.646835726E+00  4.425018370E+00  7.305289732E+00  5.109989100E-04  0.00000E+00  9.000E+00
     -11     1     3     3     0     0  1.178267116E+00  1.378337598E+01 -1.911148989E+01  2.359277036E+01  5.109989100E-04  0.00000E+00  9.000E+00
       2     1     1     2   511     0 -4.670170319E+00 -9.136540257E+00  4.948986746E+00  1.139207305E+01  0.000000000E+00  0.00000E+00  9.000E+00
#rwgt            1           7   41155.961541791134         54217137       34854           0
#pdf   2 -2 0.18765477E-02 0.52765679E-02 0.25173613E+02 0.10555189E+01 0.65929454E+00
</event>
<event>
      5  10011  2.10784E+03  1.00000E+01 -1.00000E+00  1.91964E-01
       2    -1     0     0   501     0  0.000000000E+00  0.000000000E+00  4.552084245E+01  4.552084245E+01  0.000000000E+00  0.00000E+00  9.000E+00
      -2    -1     0     0     0   501  0.000000000E+00  0.000000000E+00 -4.963888801E+01  4.963888801E+01  0.000000000E+00  0.00000E+00  9.000E+00
      23     2     1     2     0     0  0.000000000E+00  0.000000000E+00 -4.118045561E+00  9.515973047E+01  9.507058432E+01  0.00000E+00  9.000E+00
      11     1     3     3     0     0 -3.129636458E+01  2.833662512E+01  1.980584732E+01  4.663366109E+01  5.109989100E-04  0.00000E+00  9.000E+00
     -11     1     3     3     0     0  3.129636458E+01 -2.833662512E+01 -2.392389288E+01  4.852606938E+01  5.109989100E-04  0.00000E+00  9.000E+00
#rwgt            1           7   2250.6553787311855         54217137       34961           0
#pdf   2 -2 0.11380211E-01 0.12409722E-01 0.95070584E+02 0.79146725E+00 0.51056844E+00
</event>
<event>
      5  10011  2.10784E+03  1.00000E+01 -1.00000E+00  1.94843E-01
       4    -1     0     0   501     0  0.000000000E+00  0.000000000E+00  1.926895068E+01  1.926895068E+01  0.000000000E+00  0.00000E+00  9.000E+00
      -4    -1     0     0     0   501  0.000000000E+00  0.000000000E+00 -1.085928632E+02  1.085928632E+02  0.000000000E+00  0.00000E+00  9.000E+00
      23     2     1     2     0     0  0.000000000E+00  0.000000000E+00 -8.932391251E+01  1.278618139E+02  9.148705973E+01  0.00000E+00  9.000E+00
      11     1     3     3     0     0 -2.169435959E+01  3.147042140E+01 -9.542603684E+00  3.939662354E+01  5.109989100E-04  0.00000E+00  9.000E+00
     -11     1     3     3     0     0  2.169435959E+01 -3.147042140E+01 -7.978130884E+01  8.846519033E+01  5.109989100E-04  0.00000E+00  9.000E+00
#rwgt            1           9   284.15029120528254         54217137       35043           0
#pdf   4 -4 0.48172377E-02 0.27148216E-01 0.91487060E+02 0.55594045E+00 0.15944895E+00
</event>
<event>
      5  10011  2.10784E+03  1.00000E+01 -1.00000E+00  1.90497E-01
       2    -1     0     0   501     0  0.000000000E+00  0.000000000E+00  8.752831025E+02  8.752831025E+02  0.000000000E+00  0.00000E+00  9.000E+00
      -2    -1     0     0     0   501  0.000000000E+00  0.000000000E+00 -1.281358495E-01  1.281358495E-01  0.000000000E+00  0.00000E+00  9.000E+00
      23     2     1     2     0     0  0.000000000E+00  0.000000000E+00  8.751549667E+02  8.754112384E+02  2.118066513E+01  0.00000E+00  9.000E+00
      11     1     3     3     0     0  1.058193958E+01  3.480524953E-01  4.474066912E+02  4.475319496E+02  5.109989100E-04  0.00000E+00  9.000E+00
     -11     1     3     3     0     0 -1.058193958E+01 -3.480524953E-01  4.277482754E+02  4.278792887E+02  5.109989100E-04  0.00000E+00  9.000E+00
#rwgt            1           7   271822.60911768605         54217137       35231           0
#pdf   2 -2 0.21882078E+00 0.32033962E-04 0.21180665E+02 0.54912256E+00 0.31901489E+01
</event>
<event>
      6  10011  2.10784E+03  8.37531E+01 -1.00000E+00  1.27390E-01
       5    -1     0     0   501     0  0.000000000E+00  0.000000000E+00  2.494619751E+02  2.494619751E+02  0.000000000E+00  0.00000E+00  9.000E+00
      21    -1     0     0   511   501  0.000000000E+00  0.000000000E+00 -4.966466878E+01  4.966466878E+01  0.000000000E+00  0.00000E+00  9.000E+00
      23     2     1     2     0     0  6.910785024E+01  4.731472669E+01  1.698826296E+02  2.101914640E+02  9.113597191E+01  0.00000E+00  9.000E+00
      11     1     3     3     0     0  3.793118613E+01  4.602459155E+01  1.687370233E+02  1.789670946E+02  5.109989100E-04  0.00000E+00  9.000E+00
     -11     1     3     3     0     0  3.117666411E+01  1.290135145E+00  1.145606320E+00  3.122436945E+01  5.109989100E-04  0.00000E+00  9.000E+00
       5     1     1     2   511     0 -6.910785024E+01 -4.731472669E+01  2.991467664E+01  8.893517979E+01  0.000000000E+00  0.00000E+00  9.000E+00
#rwgt            1          10   27.374667896851708         54217137       35304           0
#pdf   5 -5 0.34981132E-01 0.37099310E-02 0.91135972E+02 0.75640404E-01 0.45169544E+00
</event>
<event>
      6  10011  2.10784E+03  1.10569E+01 -1.00000E+00  1.90838E-01
       2    -1     0     0   501     0  0.000000000E+00  0.000000000E+00  8.174282939E+01  8.174282939E+01  0.000000000E+00  0.00000E+00  9.000E+00
      -2    -1     0     0     0   511  0.000000000E+00  0.000000000E+00 -1.491830124E+01  1.491830124E+01  0.000000000E+00  0.00000E+00  9.000E+00
      23     2     1     2     0     0 -1.037478569E+01  3.823321355E+00  7.571268647E+01  8.247475256E+01  3.078018769E+01  0.00000E+00  9.000E+00
      11     1     3     3     0     0  2.730622791E+00  1.399001821E+01  2.161807905E+01  2.589436720E+01  5.109989100E-04  0.00000E+00  9.000E+00
     -11     1     3     3     0     0 -1.310540849E+01 -1.016669686E+01  5.409460741E+01  5.658038537E+01  5.109989100E-04  0.00000E+00  9.000E+00
      21     1     1     2   501   511  1.037478569E+01 -3.823321355E+00 -8.888158316E+00  1.418637807E+01  0.000000000E+00  0.00000E+00  9.000E+00
#rwgt            1           7   485.88510207039275         54217137       35491           0
#pdf   2 -2 0.18609194E-01 0.79549048E-03 0.30780188E+02 0.69488551E+00 0.13588649E+01
</event>
<event>
      6  10011  2.10784E+03  2.04189E+01 -1.00000E+00  1.65625E-01
      -2    -1     0     0     0   511  0.000000000E+00  0.000000000E+00  4.316314306E+00  4.316314306E+00  0.000000000E+00  0.00000E+00  9.000E+00
       2    -1     0     0   501     0  0.000000000E+00  0.000000000E+00 -2.715660319E+02  2.715660319E+02  0.000000000E+00  0.00000E+00  9.000E+00
      23     2     1     2     0     0  2.040390573E+01  7.821036950E-01 -2.132901567E+02  2.181886267E+02  4.119047018E+01  0.00000E+00  9.000E+00
      11     1     3     3     0     0  2.830472601E+01 -1.140472860E+01 -1.634998263E+02  1.663232351E+02  5.109989100E-04  0.00000E+00  9.000E+00
     -11     1     3     3     0     0 -7.900820281E+00  1.218683229E+01 -4.979033041E+01  5.186539160E+01  5.109989100E-04  0.00000E+00  9.000E+00
      21     1     1     2   501   511 -2.040390573E+01 -7.821036950E-01 -5.395956087E+01  5.769371946E+01  0.000000000E+00  0.00000E+00  9.000E+00
#rwgt            1           4   3347.2674569882902         54217137       35561           0
#pdf  -2  2 0.54860185E-03 0.48323264E-01 0.41190470E+02 0.16482562E+01 0.66931824E+00
</event>
<event>
      5  10011  2.10784E+03  1.00000E+01 -1.00000E+00  1.95385E-01
       1    -1     0     0   501     0  0.000000000E+00  0.000000000E+00  1.581340781E+01  1.581340781E+01  0.000000000E+00  0.00000E+00  9.000E+00
      -1    -1     0     0     0   501  0.000000000E+00  0.000000000E+00 -1.377574598E+02  1.377574598E+02  0.000000000E+00  0.00000E+00  9.000E+00
      23     2     1     2     0     0  0.000000000E+00  0.000000000E+00 -1.219440520E+02  1.535708676E+02  9.334698475E+01  0.00000E+00  9.000E+00
      11     1     3     3     0     0 -3.635050051E+01  7.090594216E+00 -1.077009698E+02  1.138908877E+02  5.109989100E-04  0.00000E+00  9.000E+00
     -11     1     3     3     0     0  3.635050051E+01 -7.090594216E+00 -1.424308223E+01  3.967997991E+01  5.109989100E-04  0.00000E+00  9.000E+00
#rwgt            1           6   292.14445327808579         54217137       35980           0
#pdf   1 -1 0.39533520E-02 0.34439365E-01 0.93346985E+02 0.93633787E+00 0.24186024E+00
</event>
<event>
      5  10011  2.10784E+03  1.00000E+01 -1.00000E+00  1.95489E-01
       2    -1     0     0   501     0  0.000000000E+00  0.000000000E+00  8.269350328E+00  8.269350328E+00  0.000000000E+00  0.00000E+00  9.000E+00
      -2    -1     0     0     0   501  0.000000000E+00  0.000000000E+00 -2.530531378E+02  2.530531378E+02  0.000000000E+00  0.00000E+00  9.000E+00
      23     2     1     2     0     0  0.000000000E+00  0.000000000E+00 -2.447837875E+02  2.613224881E+02  9.148956329E+01  0.00000E+00  9.000E+00
      11     1     3     3     0     0  1.584783705E+01 -7.406286831E+00 -2.431221782E+02  2.437506934E+02  5.109989100E-04  0.00000E+00  9.000E+00
     -11     1     3     3     0     0 -1.584783705E+01  7.406286831E+00 -1.661609310E+00  1.757179472E+01  5.109989100E-04  0.00000E+00  9.000E+00
#rwgt            1           7   15.786818215380885         54217137       36019           0
#pdf   2 -2 0.20673376E-02 0.63263284E-01 0.91489563E+02 0.12562069E+01 0.17908894E+00
</event>
<event>
      5  10011  2.10784E+03  1.00000E+01 -1.00000E+00  1.80448E-01
       2    -1     0     0   501     0  0.000000000E+00  0.000000000E+00  7.887103902E-01  7.887103902E-01  0.000000000E+00  0.00000E+00  9.000E+00
      -2    -1     0     0     0   501  0.000000000E+00  0.000000000E+00 -1.359239082E+02  1.359239082E+02  0.000000000E+00  0.00000E+00  9.000E+00
      23     2     1     2     0     0  0.000000000E+00  0.000000000E+00 -1.351351978E+02  1.367126186E+02  2.070793072E+01  0.00000E+00  9.000E+00
      11     1     3     3     0     0 -9.639196817E+00  3.706981462E+00 -6.267693632E+01  6.352207627E+01  5.109989100E-04  0.00000E+00  9.000E+00
     -11     1     3     3     0     0  9.639196817E+00 -3.706981462E+00 -7.245826149E+01  7.319054232E+01  5.109989100E-04  0.00000E+00  9.000E+00
#rwgt            1           7   54468.463864794430         54217137       36208           0
#pdf   2 -2 0.19717760E-03 0.33980977E-01 0.20707931E+02 0.19192774E+01 0.27799608E+00
</event>
<event>
      6  10011  2.10784E+03  1.03727E+01 -1.00000E+00  1.93931E-01
       1    -1     0     0   501     0  0.000000000E+00  0.000000000E+00  3.190668034E+01  3.190668034E+01  0.000000000E+00  0.00000E+00  9.000E+00
      21    -1     0     0   511   501  0.000000000E+00  0.000000000E+00 -1.085032519E+01  1.085032519E+01  0.000000000E+00  0.00000E+00  9.000E+00
      23     2     1     2     0     0 -9.990515910E+00  2.789606393E+00  2.279176674E+01  3.224016355E+01  2.030692498E+01  0.00000E+00  9.000E+00
      11     1     3     3     0     0  5.551888707E+00  2.472194577E+00  1.156446725E+01  1.306415391E+01  5.109989100E-04  0.00000E+00  9.000E+00
     -11     1     3     3     0     0 -1.554240462E+01  3.174118153E-01  1.122729949E+01  1.917600964E+01  5.109989100E-04  0.00000E+00  9.000E+00
       1     1     1     2   511     0  9.990515910E+00 -2.789606393E+00 -1.735411598E+00  1.051684199E+01  0.000000000E+00  0.00000E+00  9.000E+00
#rwgt            1           6   12449.772102403633         54217137       36235           0
#pdf   1 -1 0.61260775E-02 0.10517823E-02 0.20306925E+02 0.67167547E+00 0.11157661E+01
</event>
<event>
      5  10011  2.10784E+03  1.00000E+01 -1.00000E+00  1.82316E-01
       1    -1     0     0   501     0  0.000000000E+00  0.000000000E+00  9.839153141E+01  9.839153141E+01  0.000000000E+00  0.00000E+00  9.000E+00
      -1    -1     0     0     0   501  0.000000000E+00  0.000000000E+00 -2.094380520E+01  2.094380520E+01  0.000000000E+00  0.00000E+00  9.000E+00
      23     2     1     2     0     0  0.000000000E+00  0.000000000E+00  7.744772621E+01  1.193353366E+02  9.078971456E+01  0.00000E+00  9.000E+00
      11     1     3     3     0     0 -2.204567207E+01 -1.365756315E+01  8.769621740E+01  9.145035393E+01  5.109989100E-04  0.00000E+00  9.000E+00
     -11     1     3     3     0     0  2.204567207E+01  1.365756315E+01 -1.024849118E+01  2.788498269E+01  5.109989100E-04  0.00000E+00  9.000E+00
#rwgt            1           6   1105.3037475909075         54217137       36312           0
#pdf   1 -1 0.24597883E-01 0.52359513E-02 0.90789715E+02 0.51110658E+00 0.75036210E+00
</event>
<event>
      5  10011  2.10784E+03  1.00000E+01 -1.00000E+00  1.79583E-01
      -1    -1     0     0     0   501  0.000000000E+00  0.000000000E+00  3.188465808E+02  3.188465808E+02  0.000000000E+00  0.00000E+00  9.000E+00
       1    -1     0     0   501     0  0.000000000E+00  0.000000000E+00 -6.080131547E+00  6.080131547E+00  0.000000000E+00  0.00000E+00  9.000E+00
      23     2     1     2     0     0  0.000000000E+00  0.000000000E+00  3.127664492E+02  3.249267123E+02  8.805973323E+01  0.00000E+00  9.000E+00
      11     1     3     3     0     0 -2.398925719E+01 -1.076110419E+01  2.867002192E+02  2.879032850E+02  5.109989100E-04  0.00000E+00  9.000E+00
     -11     1     3     3     0     0  2.398925719E+01  1.076110419E+01  2.606623007E+01  3.702342737E+01  5.109989100E-04  0.00000E+00  9.000E+00
#rwgt            1           5   199.30175438257396         54217137       36369           0
#pdf  -1  1 0.79711645E-01 0.15200329E-02 0.88059733E+02 0.10730756E+00 0.13302895E+01
</event>
<event>
      5  10011  2.10784E+03  1.00000E+01 -1.00000E+00  1.94902E-01
       2    -1     0     0   501     0  0.000000000E+00  0.000000000E+00  1.366084601E+02  1.366084601E+02  0.000000000E+00  0.00000E+00  9.000E+00
      -2    -1     0     0     0   501  0.000000000E+00  0.000000000E+00 -1.499930361E+01  1.499930361E+01  0.000000000E+00  0.00000E+00  9.000E+00
      23     2     1     2     0     0  0.000000000E+00  0.000000000E+00  1.216091565E+02  1.516077638E+02  9.053246423E+01  0.00000E+00  9.000E+00
      11     1     3     3     0     0  3.221539741E+00  2.102999329E+01 -6.104798542E+00  2.213385420E+01  5.109989100E-04  0.00000E+00  9.000E+00
     -11     1     3     3     0     0 -3.221539741E+00 -2.102999329E+01  1.277139551E+02  1.294739096E+02  5.109989100E-04  0.00000E+00  9.000E+00
#rwgt            1           7   1497.6856879413481         54217137       36427           0
#pdf   2 -2 0.34152115E-01 0.37498259E-02 0.90532464E+02 0.68770885E+00 0.89270196E+00
</event>
<event>
      5  10011  2.10784E+03  1.00000E+01 -1.00000E+00  1.36222E-01
      -1    -1     0     0     0   501  0.000000000E+00  0.000000000E+00  1.516184553E+00  1.516184553E+00  0.000000000E+00  0.00000E+00  9.000E+00
       1    -1     0     0   501     0  0.000000000E+00  0.000000000E+00 -1.579029400E+02  1.579029400E+02  0.000000000E+00  0.00000E+00  9.000E+00
      23     2     1     2     0     0  0.000000000E+00  0.000000000E+00 -1.563867554E+02  1.594191246E+02  3.094575890E+01  0.00000E+00  9.000E+00
      11     1     3     3     0     0 -7.682860882E+00  9.027190459E+00 -2.696352461E+01  2.945417082E+01  5.109989100E-04  0.00000E+00  9.000E+00
     -11     1     3     3     0     0  7.682860882E+00 -9.027190459E+00 -1.294232308E+02  1.299649537E+02  5.109989100E-04  0.00000E+00  9.000E+00
#rwgt            1           5   4236.8938779345281         54217137       36514           0
#pdf  -1  1 0.37904614E-03 0.39475735E-01 0.30945759E+02 0.17377276E+01 0.44862361E+00
</event>
<event>
      5  10011  2.10784E+03  1.00000E+01 -1.00000E+00  1.74862E-01
       1    -1     0     0   501     0  0.000000000E+00  0.000000000E+00  7.008297325E+00  7.008297325E+00  0.000000000E+00  0.00000E+00  9.000E+00
      -1    -1     0     0     0   501  0.000000000E+00  0.000000000E+00 -2.957645961E+02  2.957645961E+02  0.000000000E+00  0.00000E+00  9.000E+00
      23     2     1     2     0     0  0.000000000E+00  0.000000000E+00 -2.887562988E+02  3.027728934E+02  9.105616349E+01  0.00000E+00  9.000E+00
      11     1     3     3     0     0  2.196206040E+01 -3.750257973E+01 -9.927023827E+01  1.083667651E+02  5.109989100E-04  0.00000E+00  9.000E+00
     -11     1     3     3     0     0 -2.196206040E+01  3.750257973E+01 -1.894860605E+02  1.944061283E+02  5.109989100E-04  0.00000E+00  9.000E+00
#rwgt            1           6   381.13744386286913         54217137       36559           0
#pdf   1 -1 0.17520743E-02 0.73941149E-01 0.91056163E+02 0.12671315E+01 0.11692258E+00
</event>
<event>
      6  10011  2.10784E+03  7.56129E+01 -1.00000E+00  1.29543E-01
      -3    -1     0     0     0   501  0.000000000E+00  0.000000000E+00  4.512881253E+01  4.512881253E+01  0.000000000E+00  0.00000E+00  9.000E+00
      21    -1     0     0   501   511  0.000000000E+00  0.000000000E+00 -2.114143364E+02  2.114143364E+02  0.000000000E+00  0.00000E+00  9.000E+00
      23     2     1     2     0     0 -6.716821821E+01  3.472376300E+01 -8.325117530E+01  1.442399330E+02  9.031661442E+01  0.00000E+00  9.000E+00
      11     1     3     3     0     0 -8.921954381E+01  2.366903185E+01 -5.842147070E+01  1.092401863E+02  5.109989100E-04  0.00000E+00  9.000E+00
     -11     1     3     3     0     0  2.205132559E+01  1.105473116E+01 -2.482970460E+01  3.499974674E+01  5.109989100E-04  0.00000E+00  9.000E+00
      -3     1     1     2     0   511  6.716821821E+01 -3.472376300E+01 -8.303434858E+01  1.123032159E+02  0.000000000E+00  0.00000E+00  9.000E+00
#rwgt            1           3   330.25156035659552         54217137       36594           0
#pdf  -3  3 0.58454822E-02 0.21803940E-01 0.90316614E+02 0.64290122E+00 0.29192785E+00
</event>
<event>
      6  10011  2.10784E+03  2.51083E+01 -1.00000E+00  1.58606E-01
      21    -1     0     0   501   511  0.000000000E+00  0.000000000E+00  3.715051287E+02  3.715051287E+02  0.000000000E+00  0.00000E+00  9.000E+00
      -5    -1     0     0     0   501  0.000000000E+00  0.000000000E+00 -1.235311897E+01  1.235311897E+01  0.000000000E+00  0.00000E+00  9.000E+00
      23     2     1     2     0     0  8.039382490E+00  2.378643904E+01  1.065615523E+02  1.300229359E+02  7.014394529E+01  0.00000E+00  9.000E+00
      11     1     3     3     0     0  3.276671833E+01  1.895603247E+01  2.681214451E+01  4.638836158E+01  5.109989100E-04  0.00000E+00  9.000E+00
     -11     1     3     3     0     0 -2.472733584E+01  4.830406568E+00  7.974940784E+01  8.363457429E+01  5.109989100E-04  0.00000E+00  9.000E+00
      -5     1     1     2     0   511 -8.039382490E+00 -2.378643904E+01  2.525904574E+02  2.538353118E+02  0.000000000E+00  0.00000E+00  9.000E+00
#rwgt            1          10   10.619805822384153         54217137       36621           0
#pdf   5 -5 0.27843032E-01 0.27611111E-02 0.70143945E+02 0.92333983E-01 0.49880347E+00
</event>
<event>
      5  10011  2.10784E+03  1.00000E+01 -1.00000E+00  1.87833E-01
      -2    -1     0     0     0   501  0.000000000E+00  0.000000000E+00  1.136892390E+02  1.136892390E+02  0.000000000E+00  0.00000E+00  9.000E+00
       2    -1     0     0   501     0  0.000000000E+00  0.000000000E+00 -1.863838077E+01  1.863838077E+01  0.000000000E+00  0.00000E+00  9.000E+00
      23     2     1     2     0     0  0.000000000E+00  0.000000000E+00  9.505085822E+01  1.323276198E+02  9.206483207E+01  0.00000E+00  9.000E+00
      11     1     3     3     0     0  3.627790710E+01 -3.923888515E+00  8.786042192E+01  9.513641356E+01  5.109989100E-04  0.00000E+00  9.000E+00
     -11     1     3     3     0     0 -3.627790710E+01  3.923888515E+00  7.190436299E+00  3.719120621E+01  5.109989100E-04  0.00000E+00  9.000E+00
#rwgt            1           4   293.13377115256685         54217137       36695           0
#pdf  -2  2 0.28422310E-01 0.46595952E-02 0.92064832E+02 0.32030323E+00 0.97799174E+00
</event>
<event>
      5  10011  2.10784E+03  1.00000E+01 -1.00000E+00  1.81043E-01
       1    -1     0     0   501     0  0.000000000E+00  0.000000000E+00  7.083407799E+01  7.083407799E+01  0.000000000E+00  0.00000E+00  9.000E+00
      -1    -1     0     0     0   501  0.000000000E+00  0.000000000E+00 -2.793138385E+01  2.793138385E+01  0.000000000E+00  0.00000E+00  9.000E+00
      23     2     1     2     0     0  0.000000000E+00  0.000000000E+00  4.290269414E+01  9.876546183E+01  8.896052656E+01  0.00000E+00  9.000E+00
      11     1     3     3     0     0 -3.020335829E+00 -2.808264646E+01 -1.669774644E+01  3.281115964E+01  5.109989100E-04  0.00000E+00  9.000E+00
     -11     1     3     3     0     0  3.020335829E+00  2.808264646E+01  5.960044058E+01  6.595430220E+01  5.109989100E-04  0.00000E+00  9.000E+00
#rwgt            1           6   153.23387568766842         54217137       36851           0
#pdf   1 -1 0.17708519E-01 0.69828460E-02 0.88960527E+02 0.55974016E+00 0.65067867E+00
</event>
<event>
      5  10011  2.10784E+03  1.00000E+01 -1.00000E+00  1.89711E-01
      -2    -1     0     0     0   501  0.000000000E+00  0.000000000E+00  3.067669025E+00  3.067669025E+00  0.000000000E+00  0.00000E+00  9.000E+00
       2    -1     0     0   501     0  0.000000000E+00  0.000000000E+00 -5.830088782E+02  5.830088782E+02  0.000000000E+00  0.00000E+00  9.000E+00
      23     2     1     2     0     0  0.000000000E+00  0.000000000E+00 -5.799412092E+02  5.860765472E+02  8.458080815E+01  0.00000E+00  9.000E+00
      11     1     3     3     0     0  1.325677390E+01  2.111492799E+01 -5.266707884E+02  5.272605632E+02  5.109989100E-04  0.00000E+00  9.000E+00
     -11     1     3     3     0     0 -1.325677390E+01 -2.111492799E+01 -5.327042085E+01  5.881598401E+01  5.109989100E-04  0.00000E+00  9.000E+00
#rwgt            1           4   3061.5539895955076         54217137       36942           0
#pdf  -2  2 0.76691726E-03 0.14575222E+00 0.84580808E+02 0.16821116E+01 0.58194501E+00
</event>
<event>
      6  10011  2.10784E+03  3.42441E+01 -1.00000E+00  1.49149E-01
      -1    -1     0     0     0   511  0.000000000E+00  0.000000000E+00  4.289050802E+01  4.289050802E+01  0.000000000E+00  0.00000E+00  9.000E+00
       1    -1     0     0   501     0  0.000000000E+00  0.000000000E+00 -1.064267287E+02  1.064267287E+02  0.000000000E+00  0.00000E+00  9.000E+00
      23     2     1     2     0     0 -3.141854438E+01  1.362117158E+01 -5.495715293E+01  1.140148055E+02  9.384255945E+01  0.00000E+00  9.000E+00
      11     1     3     3     0     0 -6.194436069E+01  9.005359828E+00 -5.471962207E+01  8.314106907E+01  5.109989100E-04  0.00000E+00  9.000E+00
     -11     1     3     3     0     0  3.052581631E+01  4.615811756E+00 -2.375308717E-01  3.087373642E+01  5.109989100E-04  0.00000E+00  9.000E+00
      21     1     1     2   501   511  3.141854438E+01 -1.362117158E+01 -8.579067718E+00  3.530243121E+01  3.769728732E-07  0.00000E+00  9.000E+00
#rwgt            1           5   2350.2240378122538         54217137       37000           0
#pdf  -1  1 0.69349068E-02 0.19841709E-01 0.93842559E+02 0.65593515E+00 0.54283020E+00
</event>
<event>
      6  10011  2.10784E+03  3.38296E+01 -1.00000E+00  1.49498E-01
       2    -1     0     0   501     0  0.000000000E+00  0.000000000E+00  7.809316239E+02  7.809316239E+02  0.000000000E+00  0.00000E+00  9.000E+00
      21    -1     0     0   511   501  0.000000000E+00  0.000000000E+00 -6.076266164E+00  6.076266164E+00  0.000000000E+00  0.00000E+00  9.000E+00
      23     2     1     2     0     0 -1.703492922E+01  2.922762417E+01  6.764255113E+02  6.829267799E+02  8.771015622E+01  0.00000E+00  9.000E+00
      11     1     3     3     0     0 -3.231342833E+01 -1.149019358E+01  1.200082988E+02  1.248125553E+02  5.109989100E-04  0.00000E+00  9.000E+00
     -11     1     3     3     0     0  1.527849911E+01  4.071781775E+01  5.564172126E+02  5.581142246E+02  5.109989100E-04  0.00000E+00  9.000E+00
       2     1     1     2   511     0  1.703492922E+01 -2.922762417E+01  9.842984636E+01  1.040811101E+02  0.000000000E+00  0.00000E+00  9.000E+00
#rwgt            1           7   2033.4987855045690         54217137       37132           0
#pdf   2 -2 0.15853562E+00 0.75821599E-03 0.87710156E+02 0.56636653E+00 0.17000600E+01
</event>
<event>
      5  10011  2.10784E+03  1.00000E+01 -1.00000E+00  1.95423E-01
      -2    -1     0     0     0   501  0.000000000E+00  0.000000000E+00  1.046519065E+01  1.046519065E+01  0.000000000E+00  0.00000E+00  9.000E+00
       2    -1     0     0   501     0  0.000000000E+00  0.000000000E+00 -1.539038145E+01  1.539038145E+01  0.000000000E+00  0.00000E+00  9.000E+00
      23     2     1     2     0     0  0.000000000E+00  0.000000000E+00 -4.925190799E+00  2.585557211E+01  2.538214145E+01  0.00000E+00  9.000E+00
      11     1     3     3     0     0  1.277599168E+00  1.126750323E+01 -8.267517213E+00  1.403355727E+01  5.109989100E-04  0.00000E+00  9.000E+00
     -11     1     3     3     0     0 -1.277599168E+00 -1.126750323E+01  3.342326414E+00  1.182201483E+01  5.109989100E-04  0.00000E+00  9.000E+00
#rwgt            1           4   36441.275217303984         54217137       37159           0
#pdf  -2  2 0.26162977E-02 0.38475954E-02 0.25382141E+02 0.85953755E+00 0.87938799E+00
</event>
<event>
      5  10011  2.10784E+03  1.00000E+01 -1.00000E+00  1.69134E-01
       1    -1     0     0   501     0  0.000000000E+00  0.000000000E+00  2.682342086E+01  2.682342086E+01  0.000000000E+00  0.00000E+00  9.000E+00
      -1    -1     0     0     0   501  0.000000000E+00  0.000000000E+00 -7.749359560E+01  7.749359560E+01  0.000000000E+00  0.00000E+00  9.000E+00
      23     2     1     2     0     0  0.000000000E+00  0.000000000E+00 -5.067017474E+01  1.043170165E+02  9.118428217E+01  0.00000E+00  9.000E+00
      11     1     3     3     0     0 -2.105678584E+01  2.994913564E+01  5.750057394E+00  3.705944031E+01  5.109989100E-04  0.00000E+00  9.000E+00
     -11     1     3     3     0     0  2.105678584E+01 -2.994913564E+01 -5.642023213E+01  6.725757615E+01  5.109989100E-04  0.00000E+00  9.000E+00
#rwgt            1           6   253.65219884617630         54217137       37295           0
#pdf   1 -1 0.67058552E-02 0.19373399E-01 0.91184282E+02 0.77079440E+00 0.36546877E+00
</event>
<event>
      5  10011  2.10784E+03  1.00000E+01 -1.00000E+00  1.71228E-01
      -2    -1     0     0     0   501  0.000000000E+00  0.000000000E+00  7.406148550E-01  7.406148550E-01  0.000000000E+00  0.00000E+00  9.000E+00
       2    -1     0     0   501     0  0.000000000E+00  0.000000000E+00 -1.693576587E+02  1.693576587E+02  0.000000000E+00  0.00000E+00  9.000E+00
      23     2     1     2     0     0  0.000000000E+00  0.000000000E+00 -1.686170438E+02  1.700982735E+02  2.239899978E+01  0.00000E+00  9.000E+00
      11     1     3     3     0     0  3.850510173E+00 -9.917256007E+00 -1.108880004E+02  1.113971589E+02  5.109989100E-04  0.00000E+00  9.000E+00
     -11     1     3     3     0     0 -3.850510173E+00  9.917256007E+00 -5.772904346E+01  5.870111459E+01  5.109989100E-04  0.00000E+00  9.000E+00
#rwgt            1           4   136060.63842939152         54217137       37395           0
#pdf  -2  2 0.18515371E-03 0.42339415E-01 0.22399000E+02 0.19824791E+01 0.66631078E+00
</event>
<event>
      5  10011  2.10784E+03  1.00000E+01 -1.00000E+00  1.86747E-01
       2    -1     0     0   501     0  0.000000000E+00  0.000000000E+00  3.651665534E+02  3.651665534E+02  0.000000000E+00  0.00000E+00  9.000E+00
      -2    -1     0     0     0   501  0.000000000E+00  0.000000000E+00 -5.632879078E-01  5.632879078E-01  0.000000000E+00  0.00000E+00  9.000E+00
      23     2     1     2     0     0  0.000000000E+00  0.000000000E+00  3.646032655E+02  3.657298413E+02  2.868406553E+01  0.00000E+00  9.000E+00
      11     1     3     3     0     0 -8.500050491E+00  6.598102084E-01  3.293492787E+02  3.294596084E+02  5.109989100E-04  0.00000E+00  9.000E+00
     -11     1     3     3     0     0  8.500050491E+00 -6.598102084E-01  3.525398680E+01  3.627023288E+01  5.109989100E-04  0.00000E+00  9.000E+00
#rwgt            1           7   5956.6854129576232         54217137       37431           0
#pdf   2 -2 0.91291638E-01 0.14082198E-03 0.28684066E+02 0.65192256E+00 0.23257743E+01
</event>
<event>
      6  10011  2.10784E+03  1.62801E+01 -1.00000E+00  1.74092E-01
      21    -1     0     0   511   501  0.000000000E+00  0.000000000E+00  8.345857084E-01  8.345857084E-01  0.000000000E+00  0.00000E+00  9.000E+00
       2    -1     0     0   501     0  0.000000000E+00  0.000000000E+00 -9.108672334E+02  9.108672334E+02  0.000000000E+00  0.00000E+00  9.000E+00
      23     2     1     2     0     0 -8.460622286E+00  1.390897948E+01 -5.086860181E+02  5.100251345E+02  3.315314486E+01  0.00000E+00  9.000E+00
      11     1     3     3     0     0 -1.550481525E+01  2.034998419E+01 -4.303432164E+02  4.311030098E+02  5.109989100E-04  0.00000E+00  9.000E+00
     -11     1     3     3     0     0  7.044192964E+00 -6.441004705E+00 -7.834280169E+01  7.892212473E+01  5.109989100E-04  0.00000E+00  9.000E+00
       2     1     1     2   511     0  8.460622286E+00 -1.390897948E+01 -4.013466296E+02  4.016766846E+02  0.000000000E+00  0.00000E+00  9.000E+00
#rwgt            1           4   22153.471011936555         54217137       37475           0
#pdf  -2  2 0.15025135E-03 0.11430128E+00 0.33153145E+02 0.23811540E+01 0.63498172E+00
</event>
<event>
      5  10011  2.10784E+03  1.00000E+01 -1.00000E+00  1.90927E-01
       3    -1     0     0   501     0  0.000000000E+00  0.000000000E+00  1.879417110E+00  1.879417110E+00  0.000000000E+00  0.00000E+00  9.000E+00
      -3    -1     0     0     0   501  0.000000000E+00  0.000000000E+00 -1.297182525E+02  1.297182525E+02  0.000000000E+00  0.00000E+00  9.000E+00
      23     2     1     2     0     0  0.000000000E+00  0.000000000E+00 -1.278388354E+02  1.315976697E+02  3.122785316E+01  0.00000E+00  9.000E+00
      11     1     3     3     0     0 -1.282203456E+01 -1.751535559E+00 -2.710383578E+01  3.003481915E+01  5.109989100E-04  0.00000E+00  9.000E+00
     -11     1     3     3     0     0  1.282203456E+01  1.751535559E+00 -1.007349997E+02  1.015628505E+02  5.109989100E-04  0.00000E+00  9.000E+00
#rwgt            1           8   379.63818597283586         54217137       37584           0
#pdf   3 -3 0.46985428E-03 0.32429563E-01 0.31227853E+02 0.15060522E+01 0.20637630E+00
</event>
<event>
      6  10011  2.10784E+03  6.98134E+01 -1.00000E+00  1.31276E-01
       1    -1     0     0   501     0  0.000000000E+00  0.000000000E+00  5.416789063E+02  5.416789063E+02  0.000000000E+00  0.00000E+00  9.000E+00
      21    -1     0     0   511   501  0.000000000E+00  0.000000000E+00 -1.600170373E+01  1.600170373E+01  0.000000000E+00  0.00000E+00  9.000E+00
      23     2     1     2     0     0 -1.213678123E+01  6.875037921E+01  3.003824117E+02  3.218169654E+02  9.199266175E+01  0.00000E+00  9.000E+00
      11     1     3     3     0     0 -1.903980653E+01  8.425185876E+01  1.735755255E+02  1.938797384E+02  5.109989100E-04  0.00000E+00  9.000E+00
     -11     1     3     3     0     0  6.903025304E+00 -1.550147955E+01  1.268068863E+02  1.279372269E+02  5.109989100E-04  0.00000E+00  9.000E+00
       1     1     1     2   511     0  1.213678123E+01 -6.875037921E+01  2.252947909E+02  2.358636447E+02  0.000000000E+00  0.00000E+00  9.000E+00
#rwgt            1           6   462.16863906442035         54217137       37631           0
#pdf   1 -1 0.61954201E-01 0.21343008E-02 0.91992662E+02 0.40712463E+00 0.11237756E+01
</event>
<event>
      5  10011  2.10784E+03  1.00000E+01 -1.00000E+00  1.88970E-01
       1    -1     0     0   501     0  0.000000000E+00  0.000000000E+00  1.564806467E+01  1.564806467E+01  0.000000000E+00  0.00000E+00  9.000E+00
      -1    -1     0     0     0   501  0.000000000E+00  0.000000000E+00 -1.286098518E+02  1.286098518E+02  0.000000000E+00  0.00000E+00  9.000E+00
      23     2     1     2     0     0  0.000000000E+00  0.000000000E+00 -1.129617871E+02  1.442579164E+02  8.972168695E+01  0.00000E+00  9.000E+00
      11     1     3     3     0     0  3.966464641E+00  2.316084023E+01 -1.179233974E+02  1.202417773E+02  5.109989100E-04  0.00000E+00  9.000E+00
     -11     1     3     3     0     0 -3.966464641E+00 -2.316084023E+01  4.961610275E+00  2.401613913E+01  5.109989100E-04  0.00000E+00  9.000E+00
#rwgt            1           6   210.73252411420526         54217137       37690           0
#pdf   1 -1 0.39120162E-02 0.32152463E-01 0.89721687E+02 0.93604379E+00 0.25518622E+00
</event>
<event>
      5  10011  2.10784E+03  1.00000E+01 -1.00000E+00  1.78633E-01
      -1    -1     0     0     0   501  0.000000000E+00  0.000000000E+00  1.161036656E+01  1.161036656E+01  0.000000000E+00  0.00000E+00  9.000E+00
       1    -1     0     0   501     0  0.000000000E+00  0.000000000E+00 -1.775181077E+02  1.775181077E+02  0.000000000E+00  0.00000E+00  9.000E+00
      23     2     1     2     0     0  0.000000000E+00  0.000000000E+00 -1.659077411E+02  1.891284743E+02  9.079758371E+01  0.00000E+00  9.000E+00
      11     1     3     3     0     0  8.160906541E+00  1.377398048E+01 -1.714426959E+02  1.721886201E+02  5.109989100E-04  0.00000E+00  9.000E+00
     -11     1     3     3     0     0 -8.160906541E+00 -1.377398048E+01  5.534954736E+00  1.693985413E+01  5.109989100E-04  0.00000E+00  9.000E+00
#rwgt            1           5   567.70936962493988         54217137       37904           0
#pdf  -1  1 0.29025916E-02 0.44379527E-01 0.90797584E+02 0.98250815E+00 0.44148647E+00
</event>
<event>
      6  10011  2.10784E+03  1.03014E+01 -1.00000E+00  1.94271E-01
      -3    -1     0     0     0   501  0.000000000E+00  0.000000000E+00  2.686661367E+02  2.686661367E+02  0.000000000E+00  0.00000E+00  9.000E+00
      21    -1     0     0   501   511  0.000000000E+00  0.000000000E+00 -1.407042998E+01  1.407042998E+01  0.000000000E+00  0.00000E+00  9.000E+00
      23     2     1     2     0     0  1.021168865E+01 -1.356741674E+00  2.565195059E+02  2.722570469E+02  9.063952399E+01  0.00000E+00  9.000E+00
      11     1     3     3     0     0 -1.924913411E+01  8.859436454E-01  2.347936405E+02  2.355830378E+02  5.109989100E-04  0.00000E+00  9.000E+00
     -11     1     3     3     0     0  2.946082276E+01 -2.242685320E+00  2.172586545E+01  3.667400912E+01  5.109989100E-04  0.00000E+00  9.000E+00
      -3     1     1     2     0   511 -1.021168865E+01  1.356741674E+00 -1.923799174E+00  1.047951985E+01  0.000000000E+00  0.00000E+00  9.000E+00
#rwgt            1           3   244.42430205968623         54217137       37964           0
#pdf  -3  3 0.65674275E-01 0.19546093E-02 0.90639524E+02 0.10756589E+00 0.10769988E+01
</event>
<event>
      6  10011  2.10784E+03  1.55465E+01 -1.00000E+00  1.75926E-01
      -2    -1     0     0     0   501  0.000000000E+00  0.000000000E+00  2.509870370E+00  2.509870370E+00  0.000000000E+00  0.00000E+00  9.000E+00
       2    -1     0     0   511     0  0.000000000E+00  0.000000000E+00 -2.548333628E+02  2.548333628E+02  0.000000000E+00  0.00000E+00  9.000E+00
      23     2     1     2     0     0 -1.464447254E+01  5.218647939E+00 -1.658692555E+02  1.695022977E+02  3.125258614E+01  0.00000E+00  9.000E+00
      11     1     3     3     0     0 -2.443791714E+01  3.963906215E+00 -1.084143842E+02  1.112052295E+02  5.109989100E-04  0.00000E+00  9.000E+00
     -11     1     3     3     0     0  9.793444597E+00  1.254741723E+00 -5.745487124E+01  5.829706822E+01  5.109989100E-04  0.00000E+00  9.000E+00
      21     1     1     2   511   501  1.464447254E+01 -5.218647939E+00 -8.645423690E+01  8.784093545E+01  9.536743164E-07  0.00000E+00  9.000E+00
#rwgt            1           4   10395.378408670857         54217137       38166           0
#pdf  -2  2 0.40660066E-03 0.37533915E-01 0.31252586E+02 0.17061062E+01 0.67207331E+00
</event>
<event>
      5  10011  2.10784E+03  1.00000E+01 -1.00000E+00  1.93941E-01
       2    -1     0     0   501     0  0.000000000E+00  0.000000000E+00  8.786701753E+01  8.786701753E+01  0.000000000E+00  0.00000E+00  9.000E+00
      -2    -1     0     0     0   501  0.000000000E+00  0.000000000E+00 -2.574781516E+00  2.574781516E+00  0.000000000E+00  0.00000E+00  9.000E+00
      23     2     1     2     0     0  0.000000000E+00  0.000000000E+00  8.529223602E+01  9.044179905E+01  3.008244489E+01  0.00000E+00  9.000E+00
      11     1     3     3     0     0  6.154115920E+00 -2.677522519E+00  2.176371030E+00  7.055413575E+00  5.109989100E-04  0.00000E+00  9.000E+00
     -11     1     3     3     0     0 -6.154115920E+00  2.677522519E+00  8.311586499E+01  8.338638547E+01  5.109989100E-04  0.00000E+00  9.000E+00
#rwgt            1           7   6943.2435761234710         54217137       38216           0
#pdf   2 -2 0.21966754E-01 0.64369538E-03 0.30082445E+02 0.68605956E+00 0.14518362E+01
</event>
<event>
      6  10011  2.10784E+03  1.25738E+01 -1.00000E+00  1.84914E-01
       1    -1     0     0   501     0  0.000000000E+00  0.000000000E+00  3.554184278E+02  3.554184278E+02  0.000000000E+00  0.00000E+00  9.000E+00
      21    -1     0     0   511   501  0.000000000E+00  0.000000000E+00 -1.600291856E+00  1.600291856E+00  0.000000000E+00  0.00000E+00  9.000E+00
      23     2     1     2     0     0  7.945446921E+00  9.745214786E+00  1.415067004E+02  1.443352812E+02  2.550348600E+01  0.00000E+00  9.000E+00
      11     1     3     3     0     0  1.451621301E+01  1.434771099E+01  1.007961656E+02  1.028418410E+02  5.109989100E-04  0.00000E+00  9.000E+00
     -11     1     3     3     0     0 -6.570766088E+00 -4.602496200E+00  4.071053483E+01  4.149344026E+01  5.109989100E-04  0.00000E+00  9.000E+00
       1     1     1     2   511     0 -7.945446921E+00 -9.745214786E+00  2.123114355E+02  2.126834385E+02  0.000000000E+00  0.00000E+00  9.000E+00
#rwgt            1           6   1028.7857278142387         54217137       38266           0
#pdf   1 -1 0.32047066E-01 0.31712527E-03 0.25503486E+02 0.46364242E+00 0.17461350E+01
</event>
<event>
      5  10011  2.10784E+03  1.00000E+01 -1.00000E+00  1.89787E-01
      -1    -1     0     0     0   501  0.000000000E+00  0.000000000E+00  3.228906832E+01  3.228906832E+01  0.000000000E+00  0.00000E+00  9.000E+00
       1    -1     0     0   501     0  0.000000000E+00  0.000000000E+00 -8.620825623E+00  8.620825623E+00  0.000000000E+00  0.00000E+00  9.000E+00
      23     2     1     2     0     0  0.000000000E+00  0.000000000E+00  2.366824270E+01  4.090989394E+01  3.336815413E+01  0.00000E+00  9.000E+00
      11     1     3     3     0     0 -2.747112100E+00  9.684704460E+00  2.814604785E+01  2.989214169E+01  5.109989100E-04  0.00000E+00  9.000E+00
     -11     1     3     3     0     0  2.747112100E+00 -9.684704460E+00 -4.477805151E+00  1.101775225E+01  5.109989100E-04  0.00000E+00  9.000E+00
#rwgt            1           5   749.17144133613760         54217137       38291           0
#pdf  -1  1 0.80722671E-02 0.21552064E-02 0.33368154E+02 0.55071938E+00 0.10075741E+01
</event>
<event>
      5  10011  2.10784E+03  1.00000E+01 -1.00000E+00  1.90452E-01
       2    -1     0     0   501     0  0.000000000E+00  0.000000000E+00  2.156603994E+02  2.156603994E+02  0.000000000E+00  0.00000E+00  9.000E+00
      -2    -1     0     0     0   501  0.000000000E+00  0.000000000E+00 -9.863467832E+00  9.863467832E+00  0.000000000E+00  0.00000E+00  9.000E+00
      23     2     1     2     0     0  0.000000000E+00  0.000000000E+00  2.057969316E+02  2.255238673E+02  9.224227691E+01  0.00000E+00  9.000E+00
      11     1     3     3     0     0  3.427024317E+01 -1.075210229E+01  3.216063757E+01  4.821165709E+01  5.109989100E-04  0.00000E+00  9.000E+00
     -11     1     3     3     0     0 -3.427024317E+01  1.075210229E+01  1.736362940E+02  1.773122102E+02  5.109989100E-04  0.00000E+00  9.000E+00
#rwgt            1           7   435.00943559313015         54217137       38332           0
#pdf   2 -2 0.53915100E-01 0.24658670E-02 0.92242277E+02 0.66586971E+00 0.10698396E+01
</event>
<event>
      6  10011  2.10784E+03  2.96229E+01 -1.00000E+00  1.53418E-01
       2    -1     0     0   501     0  0.000000000E+00  0.000000000E+00  1.720334132E+02  1.720334132E+02  0.000000000E+00  0.00000E+00  9.000E+00
      21    -1     0     0   511   501  0.000000000E+00  0.000000000E+00 -1.458787883E+01  1.458787883E+01  0.000000000E+00  0.00000E+00  9.000E+00
      23     2     1     2     0     0 -2.868912229E+01 -7.379109924E+00  4.367542585E+01  6.905788534E+01  4.454134824E+01  0.00000E+00  9.000E+00
      11     1     3     3     0     0  3.124553277E-01  1.364743055E+01  2.541774042E+01  2.885154273E+01  5.109989100E-04  0.00000E+00  9.000E+00
     -11     1     3     3     0     0 -2.900157762E+01 -2.102654048E+01  1.825768542E+01  4.020634261E+01  5.109989100E-04  0.00000E+00  9.000E+00
       2     1     1     2   511     0  2.868912229E+01  7.379109924E+00  1.137701085E+02  1.175634067E+02  0.000000000E+00  0.00000E+00  9.000E+00
#rwgt            1           7   910.24274732503795         54217137       38469           0
#pdf   2 -2 0.11733637E-01 0.26418861E-02 0.44541348E+02 0.75025895E+00 0.94059026E+00
</event>
<event>
      5  10011  2.10784E+03  1.00000E+01 -1.00000E+00  1.92051E-01
       1    -1     0     0   501     0  0.000000000E+00  0.000000000E+00  5.234990908E+01  5.234990908E+01  0.000000000E+00  0.00000E+00  9.000E+00
      -1    -1     0     0     0   501  0.000000000E+00  0.000000000E+00 -3.717185073E+01  3.717185073E+01  0.000000000E+00  0.00000E+00  9.000E+00
      23     2     1     2     0     0  0.000000000E+00  0.000000000E+00  1.517805835E+01  8.952175981E+01  8.822568801E+01  0.00000E+00  9.000E+00
      11     1     3     3     0     0 -6.458832321E+00 -1.760542208E+01 -3.292591617E+01  3.789173205E+01  5.109989100E-04  0.00000E+00  9.000E+00
     -11     1     3     3     0     0  6.458832321E+00  1.760542208E+01  4.810397453E+01  5.163002777E+01  5.109989100E-04  0.00000E+00  9.000E+00
#rwgt            1           6   690.64978057321571         54217137       38522           0
#pdf   1 -1 0.13087477E-01 0.92929627E-02 0.88225688E+02 0.61324538E+00 0.56108604E+00
</event>
<event>
      5  10011  2.10784E+03  1.00000E+01 -1.00000E+00  1.94125E-01
       2    -1     0     0   501     0  0.000000000E+00  0.000000000E+00  1.440822703E+00  1.440822703E+00  0.000000000E+00  0.00000E+00  9.000E+00
      -2    -1     0     0     0   501  0.000000000E+00  0.000000000E+00 -7.826908202E+01  7.826908202E+01  0.000000000E+00  0.00000E+00  9.000E+00
      23     2     1     2     0     0  0.000000000E+00  0.000000000E+00 -7.682825931E+01  7.970990472E+01  2.123882015E+01  0.00000E+00  9.000E+00
      11     1     3     3     0     0 -6.917602260E-01  1.047780591E+01 -4.435876752E+01  4.558468169E+01  5.109989100E-04  0.00000E+00  9.000E+00
     -11     1     3     3     0     0  6.917602260E-01 -1.047780591E+01 -3.246949180E+01  3.412522303E+01  5.109989100E-04  0.00000E+00  9.000E+00
#rwgt            1           7   17665.556612642107         54217137       38627           0
#pdf   2 -2 0.36020568E-03 0.19567271E-01 0.21238820E+02 0.16270624E+01 0.37002465E+00
</event>
<event>
      6  10011  2.10784E+03  1.80337E+01 -1.00000E+00  1.70159E-01
      21    -1     0     0   511   501  0.000000000E+00  0.000000000E+00  2.810385754E+00  2.810385754E+00  0.000000000E+00  0.00000E+00  9.000E+00
       2    -1     0     0   501     0  0.000000000E+00  0.000000000E+00 -1.130435233E+03  1.130435233E+03  0.000000000E+00  0.00000E+00  9.000E+00
      23     2     1     2     0     0 -5.237611612E+00  1.725638920E+01 -9.920186492E+02  9.964455584E+02  9.207353100E+01  0.00000E+00  9.000E+00
      11     1     3     3     0     0 -2.087709411E+01  5.180499892E+01 -5.754579558E+02  5.781621485E+02  5.109989100E-04  0.00000E+00  9.000E+00
     -11     1     3     3     0     0  1.563948250E+01 -3.454860972E+01 -4.165606934E+02  4.182834100E+02  5.109989100E-04  0.00000E+00  9.000E+00
       2     1     1     2   511     0  5.237611612E+00 -1.725638920E+01 -1.356061986E+02  1.368000608E+02  0.000000000E+00  0.00000E+00  9.000E+00
#rwgt            1           4   2369.5497954972893         54217137       38701           0
#pdf  -2  2 0.54304552E-03 0.24392336E+00 0.92073531E+02 0.19454709E+01 0.45181212E+00
</event>
<event>
      5  10011  2.10784E+03  1.00000E+01 -1.00000E+00  1.93081E-01
      -4    -1     0     0     0   501  0.000000000E+00  0.000000000E+00  1.133836785E+01  1.133836785E+01  0.000000000E+00  0.00000E+00  9.000E+00
       4    -1     0     0   501     0  0.000000000E+00  0.000000000E+00 -1.851868546E+01  1.851868546E+01  0.000000000E+00  0.00000E+00  9.000E+00
      23     2     1     2     0     0  0.000000000E+00  0.000000000E+00 -7.180317602E+00  2.985705331E+01  2.898079832E+01  0.00000E+00  9.000E+00
      11     1     3     3     0     0 -1.004271221E+01 -4.229553518E+00 -1.343020298E+01  1.729495718E+01  5.109989100E-04  0.00000E+00  9.000E+00
     -11     1     3     3     0     0  1.004271221E+01  4.229553518E+00  6.249885379E+00  1.256209613E+01  5.109989100E-04  0.00000E+00  9.000E+00
#rwgt            1           2   2471.7440908424969         54217137       38781           0
#pdf  -4  4 0.28345920E-02 0.46296714E-02 0.28980798E+02 0.57966175E+00 0.45577629E+00
</event>
<event>
      5  10011  2.10784E+03  1.00000E+01 -1.00000E+00  1.73549E-01
       2    -1     0     0   501     0  0.000000000E+00  0.000000000E+00  1.987079486E+01  1.987079486E+01  0.000000000E+00  0.00000E+00  9.000E+00
      -2    -1     0     0     0   501  0.000000000E+00  0.000000000E+00 -6.590143293E+00  6.590143293E+00  0.000000000E+00  0.00000E+00  9.000E+00
      23     2     1     2     0     0  0.000000000E+00  0.000000000E+00  1.328065156E+01  2.646093815E+01  2.288679842E+01  0.00000E+00  9.000E+00
      11     1     3     3     0     0 -6.095648224E+00 -3.025938613E+00 -3.996285376E+00  7.891991436E+00  5.109989100E-04  0.00000E+00  9.000E+00
     -11     1     3     3     0     0  6.095648224E+00  3.025938613E+00  1.727693694E+01  1.856894671E+01  5.109989100E-04  0.00000E+00  9.000E+00
#rwgt            1           7   37704.717239209545         54217137       38867           0
#pdf   2 -2 0.49676987E-02 0.16475358E-02 0.22886798E+02 0.81850025E+00 0.99193694E+00
</event>
<event>
      6  10011  2.10784E+03  3.18726E+01 -1.00000E+00  1.51231E-01
      -3    -1     0     0     0   501  0.000000000E+00  0.000000000E+00  7.294466870E+01  7.294466870E+01  0.000000000E+00  0.00000E+00  9.000E+00
      21    -1     0     0   501   511  0.000000000E+00  0.000000000E+00 -1.149164460E+02  1.149164460E+02  0.000000000E+00  0.00000E+00  9.000E+00
      23     2     1     2     0     0  9.702259458E+00  3.036003181E+01  3.593708147E+01  1.036847781E+02  9.188685440E+01  0.00000E+00  9.000E+00
      11     1     3     3     0     0  4.625999792E+01  3.616668627E+01  1.301073242E+01  6.014395864E+01  5.109989100E-04  0.00000E+00  9.000E+00
     -11     1     3     3     0     0 -3.655773846E+01 -5.806654455E+00  2.292634904E+01  4.354081944E+01  5.109989100E-04  0.00000E+00  9.000E+00
      -3     1     1     2     0   511 -9.702259458E+00 -3.036003181E+01 -7.790885874E+01  8.417633658E+01  0.000000000E+00  0.00000E+00  9.000E+00
#rwgt            1           3   261.79053389501200         54217137       38905           0
#pdf  -3  3 0.16488944E-01 0.80008100E-02 0.91886854E+02 0.35400692E+00 0.54574787E+00
</event>
<event>
      5  10011  2.10784E+03  1.00000E+01 -1.00000E+00  1.24181E-01
      -2    -1     0     0     0   501  0.000000000E+00  0.000000000E+00  5.827025115E-01  5.827025115E-01  0.000000000E+00  0.00000E+00  9.000E+00
       2    -1     0     0   501     0  0.000000000E+00  0.000000000E+00 -3.309637620E+02  3.309637620E+02  0.000000000E+00  0.00000E+00  9.000E+00
      23     2     1     2     0     0  0.000000000E+00  0.000000000E+00 -3.303810595E+02  3.315464645E+02  2.777433458E+01  0.00000E+00  9.000E+00
      11     1     3     3     0     0 -2.092280653E+00  1.018639405E+01 -2.750597801E+02  2.752562858E+02  5.109989100E-04  0.00000E+00  9.000E+00
     -11     1     3     3     0     0  2.092280653E+00 -1.018639405E+01 -5.532127940E+01  5.629017869E+01  5.109989100E-04  0.00000E+00  9.000E+00
#rwgt            1           4   33501.536659206715         54217137       38997           0
#pdf  -2  2 0.14567563E-03 0.82740940E-01 0.27774335E+02 0.22792244E+01 0.65643083E+00
</event>
<event>
      6  10011  2.10784E+03  1.78354E+01 -1.00000E+00  1.70576E-01
       1    -1     0     0   501     0  0.000000000E+00  0.000000000E+00  2.760440363E+02  2.760440363E+02  0.000000000E+00  0.00000E+00  9.000E+00
      21    -1     0     0   511   501  0.000000000E+00  0.000000000E+00 -4.339594698E+01  4.339594698E+01  0.000000000E+00  0.00000E+00  9.000E+00
      23     2     1     2     0     0 -1.513485237E+01 -9.436058566E+00  2.659354311E+02  2.816755811E+02  9.111189017E+01  0.00000E+00  9.000E+00
      11     1     3     3     0     0 -1.961454123E+01  3.699013984E+01  8.399528505E+01  9.385205690E+01  5.109989100E-04  0.00000E+00  9.000E+00
     -11     1     3     3     0     0  4.479688863E+00 -4.642619840E+01  1.819401460E+02  1.878235242E+02  5.109989100E-04  0.00000E+00  9.000E+00
       1     1     1     2   511     0  1.513485237E+01  9.436058566E+00 -3.328734171E+01  3.776440222E+01  0.000000000E+00  0.00000E+00  9.000E+00
#rwgt            1           6   1663.2044752480585         54217137       39271           0
#pdf   1 -1 0.67176399E-01 0.19308717E-02 0.91111890E+02 0.39876246E+00 0.11707859E+01
</event>
<event>
      5  10011  2.10784E+03  1.00000E+01 -1.00000E+00  1.74557E-01
      -2    -1     0     0     0   501  0.000000000E+00  0.000000000E+00  6.244205805E+00  6.244205805E+00  0.000000000E+00  0.00000E+00  9.000E+00
       2    -1     0     0   501     0  0.000000000E+00  0.000000000E+00 -2.137397882E+01  2.137397882E+01  0.000000000E+00  0.00000E+00  9.000E+00
      23     2     1     2     0     0  0.000000000E+00  0.000000000E+00 -1.512977301E+01  2.761818462E+01  2.310528274E+01  0.00000E+00  9.000E+00
      11     1     3     3     0     0  8.131472134E+00 -7.790556592E+00 -4.482466840E+00  1.212048350E+01  5.109989100E-04  0.00000E+00  9.000E+00
     -11     1     3     3     0     0 -8.131472134E+00  7.790556592E+00 -1.064730617E+01  1.549770112E+01  5.109989100E-04  0.00000E+00  9.000E+00
#rwgt            1           4   49492.083609286208         54217137       39766           0
#pdf  -2  2 0.15610515E-02 0.53434947E-02 0.23105283E+02 0.10125819E+01 0.80749544E+00
</event>
<event>
      6  10011  2.10784E+03  2.61804E+01 -1.00000E+00  1.57260E-01
       2    -1     0     0   501     0  0.000000000E+00  0.000000000E+00  1.085566809E+02  1.085566809E+02  0.000000000E+00  0.00000E+00  9.000E+00
      21    -1     0     0   511   501  0.000000000E+00  0.000000000E+00 -3.787205715E+01  3.787205715E+01  0.000000000E+00  0.00000E+00  9.000E+00
      23     2     1     2     0     0 -1.594362833E+01  2.076571356E+01  7.045375196E+01  1.202473048E+02  9.386303318E+01  0.00000E+00  9.000E+00
      11     1     3     3     0     0 -1.183784351E+01  5.628352200E+01  5.972983003E+01  8.291937037E+01  5.109989100E-04  0.00000E+00  9.000E+00
     -11     1     3     3     0     0 -4.105784827E+00 -3.551780845E+01  1.072392194E+01  3.732793442E+01  5.109989100E-04  0.00000E+00  9.000E+00
       2     1     1     2   511     0  1.594362833E+01 -2.076571356E+01  2.308717344E-01  2.618143322E+01  0.000000000E+00  0.00000E+00  9.000E+00
#rwgt            1           7   403.37466835723342         54217137       39850           0
#pdf   2 -2 0.22961200E-01 0.59953509E-02 0.93863033E+02 0.71345294E+00 0.72652935E+00
</event>
<event>
      5  10011  2.10784E+03  1.00000E+01 -1.00000E+00  1.79544E-01
      -4    -1     0     0     0   501  0.000000000E+00  0.000000000E+00  2.396451245E+02  2.396451245E+02  0.000000000E+00  0.00000E+00  9.000E+00
       4    -1     0     0   501     0  0.000000000E+00  0.000000000E+00 -1.154461934E+00  1.154461934E+00  0.000000000E+00  0.00000E+00  9.000E+00
      23     2     1     2     0     0  0.000000000E+00  0.000000000E+00  2.384906626E+02  2.407995865E+02  3.326626965E+01  0.00000E+00  9.000E+00
      11     1     3     3     0     0 -1.023612844E+01 -1.168485901E+01  1.622808867E+02  1.630226992E+02  5.109989100E-04  0.00000E+00  9.000E+00
     -11     1     3     3     0     0  1.023612844E+01  1.168485901E+01  7.620977590E+01  7.777688730E+01  5.109989100E-04  0.00000E+00  9.000E+00
#rwgt            1           2   1642.2431483500820         54217137       39994           0
#pdf  -4  4 0.59911281E-01 0.28861548E-03 0.33266270E+02 0.58621437E-01 0.15345020E+01
</event>
<event>
      5  10011  2.10784E+03  1.00000E+01 -1.00000E+00  1.83769E-01
      -2    -1     0     0     0   501  0.000000000E+00  0.000000000E+00  1.429227841E+00  1.429227841E+00  0.000000000E+00  0.00000E+00  9.000E+00
       2    -1     0     0   501     0  0.000000000E+00  0.000000000E+00 -1.358139340E+02  1.358139340E+02  0.000000000E+00  0.00000E+00  9.000E+00
      23     2     1     2     0     0  0.000000000E+00  0.000000000E+00 -1.343847061E+02  1.372431618E+02  2.786460519E+01  0.00000E+00  9.000E+00
      11     1     3     3     0     0  3.971117601E+00  1.071333388E+01 -1.064606984E+02  1.070720580E+02  5.109989100E-04  0.00000E+00  9.000E+00
     -11     1     3     3     0     0 -3.971117601E+00 -1.071333388E+01 -2.792400773E+01  3.017110382E+01  5.109989100E-04  0.00000E+00  9.000E+00
#rwgt            1           4   7356.9773879432860         54217137       40123           0
#pdf  -2  2 0.35730696E-03 0.33953483E-01 0.27864605E+02 0.17260286E+01 0.67193830E+00
</event>
<event>
      5  10011  2.10784E+03  1.00000E+01 -1.00000E+00  1.59350E-01
      -2    -1     0     0     0   501  0.000000000E+00  0.000000000E+00  8.053964169E-01  8.053964169E-01  0.000000000E+00  0.00000E+00  9.000E+00
       2    -1     0     0   501     0  0.000000000E+00  0.000000000E+00 -2.312145552E+02  2.312145552E+02  0.000000000E+00  0.00000E+00  9.000E+00
      23     2     1     2     0     0  0.000000000E+00  0.000000000E+00 -2.304091588E+02  2.320199517E+02  2.729244396E+01  0.00000E+00  9.000E+00
      11     1     3     3     0     0  9.915996048E+00 -8.859670337E+00 -1.412670370E+02  1.418914954E+02  5.109989100E-04  0.00000E+00  9.000E+00
     -11     1     3     3     0     0 -9.915996048E+00  8.859670337E+00 -8.914212184E+01  9.012845623E+01  5.109989100E-04  0.00000E+00  9.000E+00
#rwgt            1           4   14930.130118927844         54217137       40327           0
#pdf  -2  2 0.20134910E-03 0.57803639E-01 0.27292444E+02 0.20538385E+01 0.66496167E+00
</event>
<event>
      5  10011  2.10784E+03  1.00000E+01 -1.00000E+00  1.31086E-01
      -2    -1     0     0     0   501  0.000000000E+00  0.000000000E+00  1.648268854E+00  1.648268854E+00  0.000000000E+00  0.00000E+00  9.000E+00
       2    -1     0     0   501     0  0.000000000E+00  0.000000000E+00 -3.374326271E+02  3.374326271E+02  0.000000000E+00  0.00000E+00  9.000E+00
      23     2     1     2     0     0  0.000000000E+00  0.000000000E+00 -3.357843583E+02  3.390808960E+02  4.716692442E+01  0.00000E+00  9.000E+00
      11     1     3     3     0     0  2.057900749E+01 -1.031167876E+01 -2.047970989E+02  2.060865789E+02  5.109989100E-04  0.00000E+00  9.000E+00
     -11     1     3     3     0     0 -2.057900749E+01  1.031167876E+01 -1.309872593E+02  1.329943171E+02  5.109989100E-04  0.00000E+00  9.000E+00
#rwgt            1           4   2025.1009107782154         54217137       40391           0
#pdf  -2  2 0.41206721E-03 0.84358157E-01 0.47166924E+02 0.18754570E+01 0.64897746E+00
</event>
<event>
      5  10011  2.10784E+03  1.00000E+01 -1.00000E+00  1.77872E-01
      -2    -1     0     0     0   501  0.000000000E+00  0.000000000E+00  2.518648895E+02  2.518648895E+02  0.000000000E+00  0.00000E+00  9.000E+00
       2    -1     0     0   501     0  0.000000000E+00  0.000000000E+00 -1.265822907E+00  1.265822907E+00  0.000000000E+00  0.00000E+00  9.000E+00
      23     2     1     2     0     0  0.000000000E+00  0.000000000E+00  2.505990666E+02  2.531307124E+02  3.571085810E+01  0.00000E+00  9.000E+00
      11     1     3     3     0     0 -1.310160462E+01  1.122288774E+01  9.265382591E+01  9.424614957E+01  5.109989100E-04  0.00000E+00  9.000E+00
     -11     1     3     3     0     0  1.310160462E+01 -1.122288774E+01  1.579452407E+02  1.588845628E+02  5.109989100E-04  0.00000E+00  9.000E+00
#rwgt            1           4   2958.9887634893489         54217137       40564           0
#pdf  -2  2 0.62966222E-01 0.31645573E-03 0.35710858E+02 0.18428605E+00 0.19479728E+01
</event>
<event>
      6  10011  2.10784E+03  1.46972E+01 -1.00000E+00  1.78216E-01
      -4    -1     0     0     0   501  0.000000000E+00  0.000000000E+00  7.018171226E-01  7.018171226E-01  0.000000000E+00  0.00000E+00  9.000E+00
      21    -1     0     0   501   511  0.000000000E+00  0.000000000E+00 -8.532917205E+02  8.532917205E+02  0.000000000E+00  0.00000E+00  9.000E+00
      23     2     1     2     0     0 -1.420498616E+01  3.771577211E+00 -2.827746129E+02  2.839887380E+02  2.172821060E+01  0.00000E+00  9.000E+00
      11     1     3     3     0     0 -1.693364082E+01 -1.543934903E+00 -1.313171701E+02  1.324134853E+02  5.109989100E-04  0.00000E+00  9.000E+00
     -11     1     3     3     0     0  2.728654657E+00  5.315512114E+00 -1.514574429E+02  1.515752527E+02  5.109989100E-04  0.00000E+00  9.000E+00
      -4     1     1     2     0   511  1.420498616E+01 -3.771577211E+00 -5.698152904E+02  5.700047996E+02  0.000000000E+00  0.00000E+00  9.000E+00
#rwgt            1           2   2205.2400987968076         54217137       40634           0
#pdf  -4  4 0.12570854E-03 0.58681763E-01 0.21728211E+02 0.17300196E+01 0.57686982E-01
</event>
<event>
      5  10011  2.10784E+03  1.00000E+01 -1.00000E+00  1.95643E-01
       3    -1     0     0   501     0  0.000000000E+00  0.000000000E+00  6.298156977E+00  6.298156977E+00  0.000000000E+00  0.00000E+00  9.000E+00
      -3    -1     0     0     0   501  0.000000000E+00  0.000000000E+00 -3.559879996E+02  3.559879996E+02  0.000000000E+00  0.00000E+00  9.000E+00
      23     2     1     2     0     0  0.000000000E+00  0.000000000E+00 -3.496898426E+02  3.622861566E+02  9.470096733E+01  0.00000E+00  9.000E+00
      11     1     3     3     0     0  2.163728666E+01 -4.207399904E+01 -1.675114386E+02  1.740645732E+02  5.109989100E-04  0.00000E+00  9.000E+00
     -11     1     3     3     0     0 -2.163728666E+01  4.207399904E+01 -1.821784040E+02  1.882215834E+02  5.109989100E-04  0.00000E+00  9.000E+00
#rwgt            1           8   409.90023003762411         54217137       40661           0
#pdf   3 -3 0.15745392E-02 0.88997000E-01 0.94700967E+02 0.11906849E+01 0.73595467E-01
</event>
<event>
      5  10011  2.10784E+03  1.00000E+01 -1.00000E+00  1.93104E-01
       1    -1     0     0   501     0  0.000000000E+00  0.000000000E+00  5.061457613E+01  5.061457613E+01  0.000000000E+00  0.00000E+00  9.000E+00
      -1    -1     0     0     0   501  0.000000000E+00  0.000000000E+00 -3.792784015E+01  3.792784015E+01  0.000000000E+00  0.00000E+00  9.000E+00
      23     2     1     2     0     0  0.000000000E+00  0.000000000E+00  1.268673598E+01  8.854241628E+01  8.762879783E+01  0.00000E+00  9.000E+00
      11     1     3     3     0     0 -6.269221410E+00 -5.277757842E+00  4.983330163E+01  5.050263178E+01  5.109989100E-04  0.00000E+00  9.000E+00
     -11     1     3     3     0     0  6.269221410E+00  5.277757842E+00 -3.714656565E+01  3.803978450E+01  5.109989100E-04  0.00000E+00  9.000E+00
#rwgt            1           6   376.23985587685138         54217137       40723           0
#pdf   1 -1 0.12653644E-01 0.94819600E-02 0.87628798E+02 0.61956704E+00 0.55470835E+00
</event>
<event>
      6  10011  2.10784E+03  2.25996E+01 -1.00000E+00  1.62101E-01
      21    -1     0     0   511   501  0.000000000E+00  0.000000000E+00  3.523533452E+00  3.523533452E+00  0.000000000E+00  0.00000E+00  9.000E+00
       2    -1     0     0   501     0  0.000000000E+00  0.000000000E+00 -7.626592706E+02  7.626592706E+02  0.000000000E+00  0.00000E+00  9.000E+00
      23     2     1     2     0     0  1.404753740E+01  1.770337196E+01 -7.164593530E+02  7.178918479E+02  3.929323129E+01  0.00000E+00  9.000E+00
      11     1     3     3     0     0  2.244656548E+01  2.490751139E+01 -4.770168777E+02  4.781938248E+02  5.109989100E-04  0.00000E+00  9.000E+00
     -11     1     3     3     0     0 -8.399028073E+00 -7.204139426E+00 -2.394424753E+02  2.396980231E+02  5.109989100E-04  0.00000E+00  9.000E+00
       2     1     1     2   511     0 -1.404753740E+01 -1.770337196E+01 -4.267638407E+01  4.829095613E+01  0.000000000E+00  0.00000E+00  9.000E+00
#rwgt            1           4   15367.442446768344         54217137       40805           0
#pdf  -2  2 0.15521959E-03 0.15542074E+00 0.39293231E+02 0.24739596E+01 0.59449660E+00
</event>
<event>
      5  10011  2.10784E+03  1.00000E+01 -1.00000E+00  1.76974E-01
      -1    -1     0     0     0   501  0.000000000E+00  0.000000000E+00  2.653178130E+02  2.653178130E+02  0.000000000E+00  0.00000E+00  9.000E+00
       1    -1     0     0   501     0  0.000000000E+00  0.000000000E+00 -7.698162987E+00  7.698162987E+00  0.000000000E+00  0.00000E+00  9.000E+00
      23     2     1     2     0     0  0.000000000E+00  0.000000000E+00  2.576196500E+02  2.730159760E+02  9.038716210E+01  0.00000E+00  9.000E+00
      11     1     3     3     0     0  3.254972802E+01  1.082006074E+01  3.992748170E+01  5.263803096E+01  5.109989100E-04  0.00000E+00  9.000E+00
     -11     1     3     3     0     0 -3.254972802E+01 -1.082006074E+01  2.176921683E+02  2.203779450E+02  5.109989100E-04  0.00000E+00  9.000E+00
#rwgt            1           5   590.37449785091258         54217137       40877           0
#pdf  -1  1 0.66329453E-01 0.19245407E-02 0.90387162E+02 0.13185343E+00 0.12218845E+01
</event>
<event>
      5  10011  2.10784E+03  1.00000E+01 -1.00000E+00  1.87731E-01
      -2    -1     0     0     0   501  0.000000000E+00  0.000000000E+00  1.736140416E+01  1.736140416E+01  0.000000000E+00  0.00000E+00  9.000E+00
       2    -1     0     0   501     0  0.000000000E+00  0.000000000E+00 -1.196659863E+02  1.196659863E+02  0.000000000E+00  0.00000E+00  9.000E+00
      23     2     1     2     0     0  0.000000000E+00  0.000000000E+00 -1.023045821E+02  1.370273904E+02  9.116072733E+01  0.00000E+00  9.000E+00
      11     1     3     3     0     0  1.357766014E+01  3.314885590E+01 -9.351766422E+01  1.001436619E+02  5.109989100E-04  0.00000E+00  9.000E+00
     -11     1     3     3     0     0 -1.357766014E+01 -3.314885590E+01 -8.786917898E+00  3.688372851E+01  5.109989100E-04  0.00000E+00  9.000E+00
#rwgt            1           4   460.87162101490401         54217137       41121           0
#pdf  -2  2 0.43403510E-02 0.29916497E-01 0.91160727E+02 0.83791067E+00 0.69513748E+00
</event>
<event>
      5  10011  2.10784E+03  1.00000E+01 -1.00000E+00  1.26265E-01
      -4    -1     0     0     0   501  0.000000000E+00  0.000000000E+00  1.042071073E+00  1.042071073E+00  0.000000000E+00  0.00000E+00  9.000E+00
       4    -1     0     0   501     0  0.000000000E+00  0.000000000E+00 -1.057874194E+02  1.057874194E+02  0.000000000E+00  0.00000E+00  9.000E+00
      23     2     1     2     0     0  0.000000000E+00  0.000000000E+00 -1.047453483E+02  1.068294905E+02  2.099885803E+01  0.00000E+00  9.000E+00
      11     1     3     3     0     0 -9.930195200E+00 -2.796369669E+00 -4.244306206E+01  4.367885046E+01  5.109989100E-04  0.00000E+00  9.000E+00
     -11     1     3     3     0     0  9.930195200E+00  2.796369669E+00 -6.230228628E+01  6.315064002E+01  5.109989100E-04  0.00000E+00  9.000E+00
#rwgt            1           2   12738.253575823775         54217137       41247           0
#pdf  -4  4 0.26051777E-03 0.26446855E-01 0.20998858E+02 0.13390554E+01 0.13657457E+00
</event>
<event>
      6  10011  2.10784E+03  1.17968E+01 -1.00000E+00  1.87805E-01
      21    -1     0     0   501   511  0.000000000E+00  0.000000000E+00  4.808953050E+01  4.808953050E+01  0.000000000E+00  0.00000E+00  9.000E+00
      -2    -1     0     0     0   501  0.000000000E+00  0.000000000E+00 -7.197484456E+00  7.197484456E+00  0.000000000E+00  0.00000E+00  9.000E+00
      23     2     1     2     0     0  2.681453457E+00  1.148798739E+01  2.245473298E+01  3.339869478E+01  2.172771808E+01  0.00000E+00  9.000E+00
      11     1     3     3     0     0 -5.569948552E+00  2.556675180E+00 -1.696499038E+00  6.359168506E+00  5.109989100E-04  0.00000E+00  9.000E+00
     -11     1     3     3     0     0  8.251402009E+00  8.931312214E+00  2.415123202E+01  2.703952628E+01  5.109989100E-04  0.00000E+00  9.000E+00
      -2     1     1     2     0   511 -2.681453457E+00 -1.148798739E+01  1.843731306E+01  2.188832017E+01  0.000000000E+00  0.00000E+00  9.000E+00
#rwgt            1           7   22071.526547268302         54217137       41270           0
#pdf   2 -2 0.61356667E-02 0.12022271E-02 0.21727718E+02 0.77974347E+00 0.10911744E+01
</event>
<event>
      5  10011  2.10784E+03  1.00000E+01 -1.00000E+00  1.43103E-01
       2    -1     0     0   501     0  0.000000000E+00  0.000000000E+00  3.861142662E+02  3.861142662E+02  0.000000000E+00  0.00000E+00  9.000E+00
      -2    -1     0     0     0   501  0.000000000E+00  0.000000000E+00 -9.350794237E-01  9.350794237E-01  0.000000000E+00  0.00000E+00  9.000E+00
      23     2     1     2     0     0  0.000000000E+00  0.000000000E+00  3.851791868E+02  3.870493456E+02  3.800250021E+01  0.00000E+00  9.000E+00
      11     1     3     3     0     0 -1.036450286E+01 -1.314263000E+00  3.542359508E+02  3.543899816E+02  5.109989100E-04  0.00000E+00  9.000E+00
     -11     1     3     3     0     0  1.036450286E+01  1.314263000E+00  3.094323600E+01  3.265936407E+01  5.109989100E-04  0.00000E+00  9.000E+00
#rwgt            1           7   8528.1729260809680         54217137       41355           0
#pdf   2 -2 0.96528567E-01 0.23376986E-03 0.38002500E+02 0.64435014E+00 0.21494844E+01
</event>
<event>
      5  10011  2.10784E+03  1.00000E+01 -1.00000E+00  1.07908E-01
      -2    -1     0     0     0   501  0.000000000E+00  0.000000000E+00  3.773093629E+00  3.773093629E+00  0.000000000E+00  0.00000E+00  9.000E+00
       2    -1     0     0   501     0  0.000000000E+00  0.000000000E+00 -3.058818123E+01  3.058818123E+01  0.000000000E+00  0.00000E+00  9.000E+00
      23     2     1     2     0     0  0.000000000E+00  0.000000000E+00 -2.681508760E+01  3.436127486E+01  2.148600212E+01  0.00000E+00  9.000E+00
      11     1     3     3     0     0  6.878726890E+00  6.629935476E+00 -5.550221247E+00  1.104888611E+01  5.109989100E-04  0.00000E+00  9.000E+00
     -11     1     3     3     0     0 -6.878726890E+00 -6.629935476E+00 -2.126486636E+01  2.331238876E+01  5.109989100E-04  0.00000E+00  9.000E+00
#rwgt            1           4   102392.15495823367         54217137       41386           0
#pdf  -2  2 0.94327341E-03 0.76470453E-02 0.21486002E+02 0.11792020E+01 0.74965634E+00
</event>
<event>
      5  10011  2.10784E+03  1.00000E+01 -1.00000E+00  1.88389E-01
       2    -1     0     0   501     0  0.000000000E+00  0.000000000E+00  1.298764226E+00  1.298764226E+00  0.000000000E+00  0.00000E+00  9.000E+00
      -2    -1     0     0     0   501  0.000000000E+00  0.000000000E+00 -1.981998739E+02  1.981998739E+02  0.000000000E+00  0.00000E+00  9.000E+00
      23     2     1     2     0     0  0.000000000E+00  0.000000000E+00 -1.969011097E+02  1.994986381E+02  3.208830976E+01  0.00000E+00  9.000E+00
      11     1     3     3     0     0  9.402793793E+00 -5.774405909E-01 -1.791946268E+02  1.794420805E+02  5.109989100E-04  0.00000E+00  9.000E+00
     -11     1     3     3     0     0 -9.402793793E+00  5.774405909E-01 -1.770648282E+01  2.005655760E+01  5.109989100E-04  0.00000E+00  9.000E+00
#rwgt            1           7   2447.8702776610498         54217137       41485           0
#pdf   2 -2 0.32469106E-03 0.49549968E-01 0.32088310E+02 0.18799922E+01 0.22070949E+00
</event>
<event>
      6  10011  2.10784E+03  1.72204E+01 -1.00000E+00  1.71910E-01
      21    -1     0     0   501   511  0.000000000E+00  0.000000000E+00  2.696516353E+00  2.696516353E+00  0.000000000E+00  0.00000E+00  9.000E+00
      -2    -1     0     0     0   501  0.000000000E+00  0.000000000E+00 -1.320650576E+03  1.320650576E+03  0.000000000E+00  0.00000E+00  9.000E+00
      23     2     1     2     0     0  1.632146417E+01  5.491122120E+00 -1.244917870E+03  1.248308252E+03  9.031304148E+01  0.00000E+00  9.000E+00
      11     1     3     3     0     0  4.716031738E+01 -2.060751727E+01 -6.724961979E+02  6.744626761E+02  5.109989100E-04  0.00000E+00  9.000E+00
     -11     1     3     3     0     0 -3.083885321E+01  2.609863939E+01 -5.724216726E+02  5.738455760E+02  5.109989100E-04  0.00000E+00  9.000E+00
      -2     1     1     2     0   511 -1.632146417E+01 -5.491122120E+00 -7.303618907E+01  7.503884014E+01  0.000000000E+00  0.00000E+00  9.000E+00
#rwgt            1           7   19.120480436252290         54217137       41548           0
#pdf   2 -2 0.41629763E-03 0.30613785E+00 0.90313041E+02 0.21816371E+01 0.10733903E-01
</event>
<event>
      6  10011  2.10784E+03  2.65248E+01 -1.00000E+00  1.56844E-01
      -1    -1     0     0     0   501  0.000000000E+00  0.000000000E+00  1.405541576E+02  1.405541576E+02  0.000000000E+00  0.00000E+00  9.000E+00
      21    -1     0     0   501   511  0.000000000E+00  0.000000000E+00 -2.818787767E+01  2.818787767E+01  0.000000000E+00  0.00000E+00  9.000E+00
      23     2     1     2     0     0  2.353019354E+01  1.224307925E+01  7.021264887E+01  1.189375013E+02  9.226456604E+01  0.00000E+00  9.000E+00
      11     1     3     3     0     0  4.928239273E+01  4.963892963E+00  7.679090944E+01  9.137963799E+01  5.109989100E-04  0.00000E+00  9.000E+00
     -11     1     3     3     0     0 -2.575219919E+01  7.279186289E+00 -6.578260565E+00  2.755786328E+01  5.109989100E-04  0.00000E+00  9.000E+00
      -1     1     1     2     0   511 -2.353019354E+01 -1.224307925E+01  4.215363110E+01  4.980453406E+01  0.000000000E+00  0.00000E+00  9.000E+00
#rwgt            1           5   576.24806243909609         54217137       41628           0
#pdf  -1  1 0.22723385E-01 0.58535169E-02 0.92264566E+02 0.32878643E+00 0.81000323E+00
</event>
<event>
      5  10011 -2.10784E+03  1.00000E+01 -1.00000E+00  1.93956E-01
      -2    -1     0     0     0   501  0.000000000E+00  0.000000000E+00  2.424358450E+02  2.424358450E+02  0.000000000E+00  0.00000E+00  9.000E+00
       2    -1     0     0   501     0  0.000000000E+00  0.000000000E+00 -6.693525614E-01  6.693525614E-01  0.000000000E+00  0.00000E+00  9.000E+00
      23     2     1     2     0     0  0.000000000E+00  0.000000000E+00  2.417664924E+02  2.431051975E+02  2.547744523E+01  0.00000E+00  9.000E+00
      11     1     3     3     0     0 -1.150723328E+01  3.348054030E+00  1.620899732E+02  1.625324131E+02  5.109989100E-04  0.00000E+00  9.000E+00
     -11     1     3     3     0     0  1.150723328E+01 -3.348054030E+00  7.967651917E+01  8.057278443E+01  5.109989100E-04  0.00000E+00  9.000E+00
#rwgt            1           4  -9724.9594536647473         54217137       41704           0
#pdf  -2  2 0.60608961E-01 0.16733814E-03 0.25477445E+02 0.19122397E+00 0.21483236E+01
</event>
<event>
      6  10011  2.10784E+03  4.57065E+01 -1.00000E+00  1.41334E-01
       1    -1     0     0   511     0  0.000000000E+00  0.000000000E+00  3.252040294E+01  3.252040294E+01  0.000000000E+00  0.00000E+00  9.000E+00
      -1    -1     0     0     0   501  0.000000000E+00  0.000000000E+00 -1.894157381E+02  1.894157381E+02  0.000000000E+00  0.00000E+00  9.000E+00
      23     2     1     2     0     0  4.233664521E+01 -1.722473208E+01 -1.379357948E+02  1.724533451E+02  9.286974656E+01  0.00000E+00  9.000E+00
      11     1     3     3     0     0  4.086691892E+01  1.711200794E+01 -1.822529965E+01  4.790707072E+01  5.109989100E-04  0.00000E+00  9.000E+00
     -11     1     3     3     0     0  1.469726293E+00 -3.433674002E+01 -1.197104952E+02  1.245462744E+02  5.109989100E-04  0.00000E+00  9.000E+00
      21     1     1     2   511   501 -4.233664521E+01  1.722473208E+01 -1.895954034E+01  4.948279592E+01  3.371747881E-07  0.00000E+00  9.000E+00
#rwgt            1           6   142.12792915894622         54217137       41748           0
#pdf   1 -1 0.38712480E-02 0.34811084E-01 0.92869747E+02 0.94315463E+00 0.23977370E+00
</event>
<event>
      5  10011  2.10784E+03  1.00000E+01 -1.00000E+00  1.94693E-01
      -2    -1     0     0     0   501  0.000000000E+00  0.000000000E+00  2.463836886E+01  2.463836886E+01  0.000000000E+00  0.00000E+00  9.000E+00
       2    -1     0     0   501     0  0.000000000E+00  0.000000000E+00 -7.945368256E+01  7.945368256E+01  0.000000000E+00  0.00000E+00  9.000E+00
      23     2     1     2     0     0  0.000000000E+00  0.000000000E+00 -5.481531370E+01  1.040920514E+02  8.848975395E+01  0.00000E+00  9.000E+00
      11     1     3     3     0     0  3.973045608E+01  1.436981381E+00 -4.566638561E+00  4.001784906E+01  5.109989100E-04  0.00000E+00  9.000E+00
     -11     1     3     3     0     0 -3.973045608E+01 -1.436981381E+00 -5.024867514E+01  6.407420237E+01  5.109989100E-04  0.00000E+00  9.000E+00
#rwgt            1           4   1624.9401997935247         54217137       41866           0
#pdf  -2  2 0.61595922E-02 0.19863421E-01 0.88489754E+02 0.71376287E+00 0.72398415E+00
</event>
<event>
      6  10011  2.10784E+03  3.09650E+01 -1.00000E+00  1.52087E-01
       1    -1     0     0   501     0  0.000000000E+00  0.000000000E+00  2.176816201E+03  2.176816201E+03  0.000000000E+00  0.00000E+00  9.000E+00
      -1    -1     0     0     0   511  0.000000000E+00  0.000000000E+00 -2.840292621E+00  2.840292621E+00  0.000000000E+00  0.00000E+00  9.000E+00
      23     2     1     2     0     0  2.047818946E+01  2.322663489E+01  2.032938801E+03  2.035260169E+03  9.211381771E+01  0.00000E+00  9.000E+00
      11     1     3     3     0     0 -2.657775188E+01 -1.969744091E+00  1.341300255E+03  1.341564994E+03  5.109989100E-04  0.00000E+00  9.000E+00
     -11     1     3     3     0     0  4.705594135E+01  2.519637898E+01  6.916385455E+02  6.936951757E+02  5.109989100E-04  0.00000E+00  9.000E+00
      21     1     1     2   501   511 -2.047818946E+01 -2.322663489E+01  1.410371072E+02  1.443963242E+02  4.264961200E-06  0.00000E+00  9.000E+00
#rwgt            1           6   1152.3661467876466         54217137       41924           0
#pdf   1 -1 0.48201867E+00 0.27504625E-03 0.92113818E+02 0.36380341E-01 0.24949420E+01
</event>
<event>
      6  10011  2.10784E+03  2.35557E+01 -1.00000E+00  1.60707E-01
       2    -1     0     0   501     0  0.000000000E+00  0.000000000E+00  8.688881480E+01  8.688881480E+01  0.000000000E+00  0.00000E+00  9.000E+00
      21    -1     0     0   511   501  0.000000000E+00  0.000000000E+00 -5.161324015E+01  5.161324015E+01  0.000000000E+00  0.00000E+00  9.000E+00
      23     2     1     2     0     0 -5.368900763E+00 -2.293565112E+01  5.368587016E+01  1.086054303E+02  9.142263198E+01  0.00000E+00  9.000E+00
      11     1     3     3     0     0  4.732886108E+00 -3.149967895E+01  7.614130353E+01  8.253561709E+01  5.109989100E-04  0.00000E+00  9.000E+00
     -11     1     3     3     0     0 -1.010178687E+01  8.564027832E+00 -2.245543337E+01  2.606981317E+01  5.109989100E-04  0.00000E+00  9.000E+00
       2     1     1     2   511     0  5.368900763E+00  2.293565112E+01 -1.841029551E+01  2.989662470E+01  0.000000000E+00  0.00000E+00  9.000E+00
#rwgt            1           7   134.95593644471413         54217137       42129           0
#pdf   2 -2 0.19644810E-01 0.66478259E-02 0.91422632E+02 0.72579227E+00 0.69107018E+00
</event>
<event>
      6  10011  2.10784E+03  1.13744E+01 -1.00000E+00  1.89500E-01
      -2    -1     0     0     0   501  0.000000000E+00  0.000000000E+00  3.204322670E+01  3.204322670E+01  0.000000000E+00  0.00000E+00  9.000E+00
       2    -1     0     0   511     0  0.000000000E+00  0.000000000E+00 -9.002373713E+01  9.002373713E+01  0.000000000E+00  0.00000E+00  9.000E+00
      23     2     1     2     0     0 -8.451228297E+00 -7.612737673E+00 -4.314700676E+01  1.033744555E+02  9.324825378E+01  0.00000E+00  9.000E+00
      11     1     3     3     0     0 -3.252962457E+01  2.827185423E+01 -4.194971722E+01  6.014360308E+01  5.109989100E-04  0.00000E+00  9.000E+00
     -11     1     3     3     0     0  2.407839627E+01 -3.588459190E+01 -1.197289537E+00  4.323085247E+01  5.109989100E-04  0.00000E+00  9.000E+00
      21     1     1     2   511   501  8.451228297E+00  7.612737673E+00 -1.483350367E+01  1.869250828E+01  3.769728732E-07  0.00000E+00  9.000E+00
#rwgt            1           4   934.14654286191603         54217137       42406           0
#pdf  -2  2 0.74730404E-02 0.18180428E-01 0.93248254E+02 0.65529826E+00 0.73353470E+00
</event>
<event>
      5  10011  2.10784E+03  1.00000E+01 -1.00000E+00  1.95267E-01
      -2    -1     0     0     0   501  0.000000000E+00  0.000000000E+00  7.950367028E-01  7.950367028E-01  0.000000000E+00  0.00000E+00  9.000E+00
       2    -1     0     0   501     0  0.000000000E+00  0.000000000E+00 -1.730357142E+02  1.730357142E+02  0.000000000E+00  0.00000E+00  9.000E+00
      23     2     1     2     0     0  0.000000000E+00  0.000000000E+00 -1.722406775E+02  1.738307509E+02  2.345802581E+01  0.00000E+00  9.000E+00
      11     1     3     3     0     0 -1.976409761E+00 -9.018088413E+00 -1.397298897E+02  1.400345465E+02  5.109989100E-04  0.00000E+00  9.000E+00
     -11     1     3     3     0     0  1.976409761E+00  9.018088413E+00 -3.251078777E+01  3.379620445E+01  5.109989100E-04  0.00000E+00  9.000E+00
#rwgt            1           4   106331.50919403568         54217137       42463           0
#pdf  -2  2 0.19875918E-03 0.43258929E-01 0.23458026E+02 0.19692774E+01 0.66675987E+00
</event>
<event>
      5  10011  2.10784E+03  1.00000E+01 -1.00000E+00  1.94441E-01
       3    -1     0     0   501     0  0.000000000E+00  0.000000000E+00  1.362374674E+01  1.362374674E+01  0.000000000E+00  0.00000E+00  9.000E+00
      -3    -1     0     0     0   501  0.000000000E+00  0.000000000E+00 -2.837341244E+01  2.837341244E+01  0.000000000E+00  0.00000E+00  9.000E+00
      23     2     1     2     0     0  0.000000000E+00  0.000000000E+00 -1.474966570E+01  4.199715918E+01  3.932186085E+01  0.00000E+00  9.000E+00
      11     1     3     3     0     0 -1.316363731E+00  5.617785098E+00 -2.744879032E+01  2.804867935E+01  5.109989100E-04  0.00000E+00  9.000E+00
     -11     1     3     3     0     0  1.316363731E+00 -5.617785098E+00  1.269912462E+01  1.394847982E+01  5.109989100E-04  0.00000E+00  9.000E+00
#rwgt            1           8   367.42334276992466         54217137       42516           0
#pdf   3 -3 0.34059367E-02 0.70933531E-02 0.39321861E+02 0.74164769E+00 0.52898344E+00
</event>
<event>
      6  10011  2.10784E+03  4.80046E+01 -1.00000E+00  1.40089E-01
      21    -1     0     0   511   501  0.000000000E+00  0.000000000E+00  3.714598808E+00  3.714598808E+00  0.000000000E+00  0.00000E+00  9.000E+00
       2    -1     0     0   501     0  0.000000000E+00  0.000000000E+00 -1.774539251E+03  1.774539251E+03  0.000000000E+00  0.00000E+00  9.000E+00
      23     2     1     2     0     0 -4.798673819E+01 -1.308850755E+00 -9.480516183E+02  9.540815951E+02  9.573598598E+01  0.00000E+00  9.000E+00
      11     1     3     3     0     0 -5.034179856E+01 -1.084417436E+01 -9.399222090E+02  9.413318500E+02  5.109989100E-04  0.00000E+00  9.000E+00
     -11     1     3     3     0     0  2.355060369E+00  9.535323605E+00 -8.129409367E+00  1.274974519E+01  5.109989100E-04  0.00000E+00  9.000E+00
       2     1     1     2   511     0  4.798673819E+01  1.308850755E+00 -8.227730338E+02  8.241722546E+02  0.000000000E+00  0.00000E+00  9.000E+00
#rwgt            1           4   929.58963978937163         54217137       42555           0
#pdf  -2  2 0.67378693E-03 0.21254352E+00 0.95735986E+02 0.18054012E+01 0.49459137E+00
</event>
<event>
      5  10011  2.10784E+03  1.00000E+01 -1.00000E+00  1.93831E-01
       1    -1     0     0   501     0  0.000000000E+00  0.000000000E+00  1.045246276E+03  1.045246276E+03  0.000000000E+00  0.00000E+00  9.000E+00
      -1    -1     0     0     0   501  0.000000000E+00  0.000000000E+00 -2.392357473E-01  2.392357473E-01  0.000000000E+00  0.00000E+00  9.000E+00
      23     2     1     2     0     0  0.000000000E+00  0.000000000E+00  1.045007040E+03  1.045485512E+03  3.162658843E+01  0.00000E+00  9.000E+00
      11     1     3     3     0     0 -1.413481003E+01  1.976537572E+00  2.974215279E+02  2.977637735E+02  5.109989100E-04  0.00000E+00  9.000E+00
     -11     1     3     3     0     0  1.413481003E+01 -1.976537572E+00  7.475855126E+02  7.477217384E+02  5.109989100E-04  0.00000E+00  9.000E+00
#rwgt            1           6   2010.9018541545038         54217137       42681           0
#pdf   1 -1 0.26131157E+00 0.59808937E-04 0.31626588E+02 0.19281107E+00 0.30989194E+01
</event>
<event>
      5  10011  2.10784E+03  1.00000E+01 -1.00000E+00  1.69146E-01
      -2    -1     0     0     0   501  0.000000000E+00  0.000000000E+00  1.297544507E-01  1.297544507E-01  0.000000000E+00  0.00000E+00  9.000E+00
       2    -1     0     0   501     0  0.000000000E+00  0.000000000E+00 -8.103376770E+02  8.103376770E+02  0.000000000E+00  0.00000E+00  9.000E+00
      23     2     1     2     0     0  0.000000000E+00  0.000000000E+00 -8.102079225E+02  8.104674314E+02  2.050803941E+01  0.00000E+00  9.000E+00
      11     1     3     3     0     0 -2.014830468E+00  4.270599676E+00 -7.648125037E+02  7.648270807E+02  5.109989100E-04  0.00000E+00  9.000E+00
     -11     1     3     3     0     0  2.014830468E+00 -4.270599676E+00 -4.539541879E+01  4.564035069E+01  5.109989100E-04  0.00000E+00  9.000E+00
#rwgt            1           4   669922.19678146660         54217137       42700           0
#pdf  -2  2 0.32438613E-04 0.20258442E+00 0.20508039E+02 0.31383030E+01 0.56968938E+00
</event>
<event>
      6  10011  2.10784E+03  1.90966E+01 -1.00000E+00  1.68037E-01
      21    -1     0     0   511   501  0.000000000E+00  0.000000000E+00  4.513457054E+01  4.513457054E+01  0.000000000E+00  0.00000E+00  9.000E+00
       2    -1     0     0   501     0  0.000000000E+00  0.000000000E+00 -6.023057936E+01  6.023057936E+01  0.000000000E+00  0.00000E+00  9.000E+00
      23     2     1     2     0     0  7.796430763E+00 -1.743262233E+01 -2.161606753E+01  8.518615539E+01  8.015451354E+01  0.00000E+00  9.000E+00
      11     1     3     3     0     0 -2.855729049E+01 -6.478154792E+00 -3.435157366E+01  4.513885181E+01  5.109989100E-04  0.00000E+00  9.000E+00
     -11     1     3     3     0     0  3.635372125E+01 -1.095446754E+01  1.273550613E+01  4.004730359E+01  5.109989100E-04  0.00000E+00  9.000E+00
       2     1     1     2   511     0 -7.796430763E+00  1.743262233E+01  6.520058702E+00  2.017899451E+01  0.000000000E+00  0.00000E+00  9.000E+00
#rwgt            1           4   877.98257702459046         54217137       42758           0
#pdf  -2  2 0.77299068E-02 0.12986788E-01 0.80154514E+02 0.63699843E+00 0.76586025E+00
</event>
<event>
      5  10011  2.10784E+03  1.00000E+01 -1.00000E+00  1.95265E-01
      -2    -1     0     0     0   501  0.000000000E+00  0.000000000E+00  1.298926344E+00  1.298926344E+00  0.000000000E+00  0.00000E+00  9.000E+00
       2    -1     0     0   501     0  0.000000000E+00  0.000000000E+00 -6.980814847E+02  6.980814847E+02  0.000000000E+00  0.00000E+00  9.000E+00
      23     2     1     2     0     0  0.000000000E+00  0.000000000E+00 -6.967825584E+02  6.993804111E+02  6.022479326E+01  0.00000E+00  9.000E+00
      11     1     3     3     0     0  1.493582398E+01 -2.604763901E+01 -3.219147995E+02  3.233120729E+02  5.109989100E-04  0.00000E+00  9.000E+00
     -11     1     3     3     0     0 -1.493582398E+01  2.604763901E+01 -3.748677589E+02  3.760683382E+02  5.109989100E-04  0.00000E+00  9.000E+00
#rwgt            1           4   1372.1507684082846         54217137       42889           0
#pdf  -2  2 0.32473159E-03 0.17452037E+00 0.60224793E+02 0.21514943E+01 0.55944300E+00
</event>
<event>
      5  10011  2.10784E+03  1.00000E+01 -1.00000E+00  1.95676E-01
      -2    -1     0     0     0   501  0.000000000E+00  0.000000000E+00  3.673149042E+00  3.673149042E+00  0.000000000E+00  0.00000E+00  9.000E+00
       2    -1     0     0   501     0  0.000000000E+00  0.000000000E+00 -5.695946978E+02  5.695946978E+02  0.000000000E+00  0.00000E+00  9.000E+00
      23     2     1     2     0     0  0.000000000E+00  0.000000000E+00 -5.659215488E+02  5.732678469E+02  9.148128156E+01  0.00000E+00  9.000E+00
      11     1     3     3     0     0  2.875757530E+01 -3.450127643E+01 -3.371832421E+02  3.401615424E+02  5.109989100E-04  0.00000E+00  9.000E+00
     -11     1     3     3     0     0 -2.875757530E+01  3.450127643E+01 -2.287383067E+02  2.331063045E+02  5.109989100E-04  0.00000E+00  9.000E+00
#rwgt            1           4   1501.4279500191581         54217137       42988           0
#pdf  -2  2 0.91828726E-03 0.14239867E+00 0.91481282E+02 0.15904589E+01 0.58354953E+00
</event>
<event>
      6  10011  2.10784E+03  8.81342E+01 -1.00000E+00  1.26344E-01
       1    -1     0     0   501     0  0.000000000E+00  0.000000000E+00  6.019955676E+02  6.019955676E+02  0.000000000E+00  0.00000E+00  9.000E+00
      21    -1     0     0   511   501  0.000000000E+00  0.000000000E+00 -2.010443072E+01  2.010443072E+01  0.000000000E+00  0.00000E+00  9.000E+00
      23     2     1     2     0     0  6.278310210E+01 -6.185406421E+01  3.029374454E+02  3.295546084E+02  9.522342632E+01  0.00000E+00  9.000E+00
      11     1     3     3     0     0  8.967621600E+00  2.214999861E+01  1.075324423E+02  1.101556482E+02  5.109989100E-04  0.00000E+00  9.000E+00
     -11     1     3     3     0     0  5.381548051E+01 -8.400406283E+01  1.954050031E+02  2.193989602E+02  5.109989100E-04  0.00000E+00  9.000E+00
       1     1     1     2   511     0 -6.278310210E+01  6.185406421E+01  2.789536915E+02  2.925453899E+02  0.000000000E+00  0.00000E+00  9.000E+00
#rwgt            1           6   2126.5749093142881         54217137       43097           0
#pdf   1 -1 0.58023039E-01 0.24417835E-02 0.95223426E+02 0.41369771E+00 0.10655848E+01
</event>
<event>
      6  10011  2.10784E+03  1.92722E+01 -1.00000E+00  1.67703E-01
       2    -1     0     0   501     0  0.000000000E+00  0.000000000E+00  1.116176227E+03  1.116176227E+03  0.000000000E+00  0.00000E+00  9.000E+00
      -2    -1     0     0     0   511  0.000000000E+00  0.000000000E+00 -4.602789032E+00  4.602789032E+00  0.000000000E+00  0.00000E+00  9.000E+00
      23     2     1     2     0     0  9.294521565E+00  1.688278069E+01  1.087685531E+03  1.090086207E+03  6.969008812E+01  0.00000E+00  9.000E+00
      11     1     3     3     0     0 -1.420940488E+00 -2.539056221E+01  2.565401618E+02  2.577975064E+02  5.109989100E-04  0.00000E+00  9.000E+00
     -11     1     3     3     0     0  1.071546205E+01  4.227334290E+01  8.311453690E+02  8.322887006E+02  5.109989100E-04  0.00000E+00  9.000E+00
      21     1     1     2   501   511 -9.294521565E+00 -1.688278069E+01  2.388790701E+01  3.069280887E+01  1.469710828E-06  0.00000E+00  9.000E+00
#rwgt            1           7   318.39148820661518         54217137       43191           0
#pdf   2 -2 0.26237377E+00 0.28922887E-03 0.69690088E+02 0.43595520E+00 0.23134600E+01
</event>
<event>
      6  10011  2.10784E+03  1.27559E+01 -1.00000E+00  1.84275E-01
      -3    -1     0     0     0   501  0.000000000E+00  0.000000000E+00  2.316395331E+02  2.316395331E+02  0.000000000E+00  0.00000E+00  9.000E+00
      21    -1     0     0   501   511  0.000000000E+00  0.000000000E+00 -1.930795758E+01  1.930795758E+01  0.000000000E+00  0.00000E+00  9.000E+00
      23     2     1     2     0     0 -1.008910482E+01  7.805313999E+00  2.182708122E+02  2.368766878E+02  9.113563945E+01  0.00000E+00  9.000E+00
      11     1     3     3     0     0 -4.096022853E+01  2.800484065E+01  8.333378959E+01  9.698727704E+01  5.109989100E-04  0.00000E+00  9.000E+00
     -11     1     3     3     0     0  3.087112371E+01 -2.019952665E+01  1.349370227E+02  1.398894108E+02  5.109989100E-04  0.00000E+00  9.000E+00
      -3     1     1     2     0   511  1.008910482E+01 -7.805313999E+00 -5.939236685E+00  1.407080293E+01  0.000000000E+00  0.00000E+00  9.000E+00
#rwgt            1           3   543.87318594686417         54217137       43229           0
#pdf  -3  3 0.56344209E-01 0.23032826E-02 0.91135639E+02 0.12747691E+00 0.10024545E+01
</event>
<event>
      5  10011  2.10784E+03  1.00000E+01 -1.00000E+00  1.94454E-01
       1    -1     0     0   501     0  0.000000000E+00  0.000000000E+00  4.212476120E+02  4.212476120E+02  0.000000000E+00  0.00000E+00  9.000E+00
      -1    -1     0     0     0   501  0.000000000E+00  0.000000000E+00 -4.887719445E+00  4.887719445E+00  0.000000000E+00  0.00000E+00  9.000E+00
      23     2     1     2     0     0  0.000000000E+00  0.000000000E+00  4.163598925E+02  4.261353314E+02  9.075109133E+01  0.00000E+00  9.000E+00
      11     1     3     3     0     0  2.379889265E+01  3.145239110E+01  1.028361100E+02  1.101403910E+02  5.109989100E-04  0.00000E+00  9.000E+00
     -11     1     3     3     0     0 -2.379889265E+01 -3.145239110E+01  3.135237825E+02  3.159949405E+02  5.109989100E-04  0.00000E+00  9.000E+00
#rwgt            1           6   2344.7160485348413         54217137       43386           0
#pdf   1 -1 0.10531190E+00 0.12219299E-02 0.90751091E+02 0.34613767E+00 0.14118069E+01
</event>
<event>
      6  10011  2.10784E+03  1.17154E+01 -1.00000E+00  1.88124E-01
       2    -1     0     0   501     0  0.000000000E+00  0.000000000E+00  9.487249291E+02  9.487249291E+02  0.000000000E+00  0.00000E+00  9.000E+00
      21    -1     0     0   511   501  0.000000000E+00  0.000000000E+00 -1.374550104E+01  1.374550104E+01  0.000000000E+00  0.00000E+00  9.000E+00
      23     2     1     2     0     0  6.981295944E+00  9.408085476E+00  9.436250429E+02  9.479103058E+02  8.926631957E+01  0.00000E+00  9.000E+00
      11     1     3     3     0     0  1.894700646E+01  4.498923846E+01  6.614954921E+02  6.632942836E+02  5.109989100E-04  0.00000E+00  9.000E+00
     -11     1     3     3     0     0 -1.196571052E+01 -3.558115298E+01  2.821295508E+02  2.846160222E+02  5.109989100E-04  0.00000E+00  9.000E+00
       2     1     1     2   511     0 -6.981295944E+00 -9.408085476E+00 -8.645614783E+00  1.456012432E+01  0.000000000E+00  0.00000E+00  9.000E+00
#rwgt            1           7   1097.3126507081915         54217137       43443           0
#pdf   2 -2 0.23443159E+00 0.53110348E-03 0.89266320E+02 0.46657358E+00 0.19506671E+01
</event>
<event>
      5  10011  2.10784E+03  1.00000E+01 -1.00000E+00  1.93391E-01
      -2    -1     0     0     0   501  0.000000000E+00  0.000000000E+00  2.471257156E+00  2.471257156E+00  0.000000000E+00  0.00000E+00  9.000E+00
       2    -1     0     0   501     0  0.000000000E+00  0.000000000E+00 -8.415732660E+02  8.415732660E+02  0.000000000E+00  0.00000E+00  9.000E+00
      23     2     1     2     0     0  0.000000000E+00  0.000000000E+00 -8.391020089E+02  8.440445232E+02  9.120841969E+01  0.00000E+00  9.000E+00
      11     1     3     3     0     0 -2.846354417E+01 -3.222562958E+01 -2.788779078E+02  2.821729116E+02  5.109989100E-04  0.00000E+00  9.000E+00
     -11     1     3     3     0     0  2.846354417E+01  3.222562958E+01 -5.602241011E+02  5.618716117E+02  5.109989100E-04  0.00000E+00  9.000E+00
#rwgt            1           4   4205.5527328443450         54217137       43504           0
#pdf  -2  2 0.61781429E-03 0.21039332E+00 0.91208420E+02 0.18501157E+01 0.49924680E+00
</event>
<event>
      5  10011  2.10784E+03  1.00000E+01 -1.00000E+00  1.86522E-01
      -3    -1     0     0     0   501  0.000000000E+00  0.000000000E+00  5.896328121E+00  5.896328121E+00  0.000000000E+00  0.00000E+00  9.000E+00
       3    -1     0     0   501     0  0.000000000E+00  0.000000000E+00 -3.565582342E+02  3.565582342E+02  0.000000000E+00  0.00000E+00  9.000E+00
      23     2     1     2     0     0  0.000000000E+00  0.000000000E+00 -3.506619061E+02  3.624545623E+02  9.170352977E+01  0.00000E+00  9.000E+00
      11     1     3     3     0     0 -2.088711873E+01  6.922937072E+00 -3.343252982E+02  3.350486589E+02  5.109989100E-04  0.00000E+00  9.000E+00
     -11     1     3     3     0     0  2.088711873E+01 -6.922937072E+00 -1.633660785E+01  2.740590343E+01  5.109989100E-04  0.00000E+00  9.000E+00
#rwgt            1           3   138.16720123878889         54217137       43569           0
#pdf  -3  3 0.14740820E-02 0.89139559E-01 0.91703530E+02 0.12185203E+01 0.73513473E-01
</event>
<event>
      5  10011  2.10784E+03  1.00000E+01 -1.00000E+00  1.87906E-01
       4    -1     0     0   501     0  0.000000000E+00  0.000000000E+00  2.815238787E+01  2.815238787E+01  0.000000000E+00  0.00000E+00  9.000E+00
      -4    -1     0     0     0   501  0.000000000E+00  0.000000000E+00 -6.699558382E+01  6.699558382E+01  0.000000000E+00  0.00000E+00  9.000E+00
      23     2     1     2     0     0  0.000000000E+00  0.000000000E+00 -3.884319595E+01  9.514797169E+01  8.685817546E+01  0.00000E+00  9.000E+00
      11     1     3     3     0     0  1.095637465E+00 -5.976946645E+00  2.768440291E+01  2.834343799E+01  5.109989100E-04  0.00000E+00  9.000E+00
     -11     1     3     3     0     0 -1.095637465E+00  5.976946645E+00 -6.652759886E+01  6.680453370E+01  5.109989100E-04  0.00000E+00  9.000E+00
#rwgt            1           9   319.32952326562082         54217137       43695           0
#pdf   4 -4 0.70380970E-02 0.16748896E-01 0.86858175E+02 0.44149965E+00 0.24175095E+00
</event>
<event>
      5  10011  2.10784E+03  1.00000E+01 -1.00000E+00  1.88858E-01
       2    -1     0     0   501     0  0.000000000E+00  0.000000000E+00  3.549680223E+00  3.549680223E+00  0.000000000E+00  0.00000E+00  9.000E+00
      -2    -1     0     0     0   501  0.000000000E+00  0.000000000E+00 -4.407804151E+01  4.407804151E+01  0.000000000E+00  0.00000E+00  9.000E+00
      23     2     1     2     0     0  0.000000000E+00  0.000000000E+00 -4.052836129E+01  4.762772173E+01  2.501703038E+01  0.00000E+00  9.000E+00
      11     1     3     3     0     0  4.530279304E+00 -5.845583431E-01 -4.243339967E+01  4.267854902E+01  5.109989100E-04  0.00000E+00  9.000E+00
     -11     1     3     3     0     0 -4.530279304E+00  5.845583431E-01  1.905038380E+00  4.949172711E+00  5.109989100E-04  0.00000E+00  9.000E+00
#rwgt            1           7   865.94142681307051         54217137       43776           0
#pdf   2 -2 0.88742006E-03 0.11019510E-01 0.25017030E+02 0.13050263E+01 0.48679389E+00
</event>
<event>
      5  10011  2.10784E+03  1.00000E+01 -1.00000E+00  1.93027E-01
       2    -1     0     0   501     0  0.000000000E+00  0.000000000E+00  1.139045390E+02  1.139045390E+02  0.000000000E+00  0.00000E+00  9.000E+00
      -2    -1     0     0     0   501  0.000000000E+00  0.000000000E+00 -1.678324485E+01  1.678324485E+01  0.000000000E+00  0.00000E+00  9.000E+00
      23     2     1     2     0     0  0.000000000E+00  0.000000000E+00  9.712129413E+01  1.306877838E+02  8.744570354E+01  0.00000E+00  9.000E+00
      11     1     3     3     0     0 -2.157126832E+01 -3.849160373E+00 -7.985119829E+00  2.332161640E+01  5.109989100E-04  0.00000E+00  9.000E+00
     -11     1     3     3     0     0  2.157126832E+01  3.849160373E+00  1.051064140E+02  1.073661674E+02  5.109989100E-04  0.00000E+00  9.000E+00
#rwgt            1           7   1299.2039059001411         54217137       43932           0
#pdf   2 -2 0.28476135E-01 0.41958112E-02 0.87445704E+02 0.69749791E+00 0.84676894E+00
</event>
<event>
      5  10011  2.10784E+03  1.00000E+01 -1.00000E+00  1.87870E-01
      -2    -1     0     0     0   501  0.000000000E+00  0.000000000E+00  1.291839383E+00  1.291839383E+00  0.000000000E+00  0.00000E+00  9.000E+00
       2    -1     0     0   501     0  0.000000000E+00  0.000000000E+00 -1.618489343E+03  1.618489343E+03  0.000000000E+00  0.00000E+00  9.000E+00
      23     2     1     2     0     0  0.000000000E+00  0.000000000E+00 -1.617197504E+03  1.619781182E+03  9.145115143E+01  0.00000E+00  9.000E+00
      11     1     3     3     0     0 -4.233132828E+01  1.000275957E+01 -1.058351346E+03  1.059244810E+03  5.109989100E-04  0.00000E+00  9.000E+00
     -11     1     3     3     0     0  4.233132828E+01 -1.000275957E+01 -5.588461578E+02  5.605363723E+02  5.109989100E-04  0.00000E+00  9.000E+00
#rwgt            1           4   3727.2130527765248         54217137       43981           0
#pdf  -2  2 0.32295985E-03 0.40462234E+00 0.91451151E+02 0.23537171E+01 0.21980326E+00
</event>
<event>
      5  10011  2.10784E+03  1.00000E+01 -1.00000E+00  1.56290E-01
      -2    -1     0     0     0   501  0.000000000E+00  0.000000000E+00  1.165710526E+00  1.165710526E+00  0.000000000E+00  0.00000E+00  9.000E+00
       2    -1     0     0   501     0  0.000000000E+00  0.000000000E+00 -2.090094383E+02  2.090094383E+02  0.000000000E+00  0.00000E+00  9.000E+00
      23     2     1     2     0     0  0.000000000E+00  0.000000000E+00 -2.078437277E+02  2.101751488E+02  3.121823200E+01  0.00000E+00  9.000E+00
      11     1     3     3     0     0 -1.291615336E+01 -3.785038333E+00 -5.070102815E+01  5.245710427E+01  5.109989100E-04  0.00000E+00  9.000E+00
     -11     1     3     3     0     0  1.291615336E+01  3.785038333E+00 -1.571426996E+02  1.577180445E+02  5.109989100E-04  0.00000E+00  9.000E+00
#rwgt            1           4   13439.789535683551         54217137       44177           0
#pdf  -2  2 0.29142763E-03 0.52252360E-01 0.31218232E+02 0.18996573E+01 0.66675000E+00
</event>
<event>
      5  10011  2.10784E+03  1.00000E+01 -1.00000E+00  1.94988E-01
      -1    -1     0     0     0   501  0.000000000E+00  0.000000000E+00  2.099149273E+02  2.099149273E+02  0.000000000E+00  0.00000E+00  9.000E+00
       1    -1     0     0   501     0  0.000000000E+00  0.000000000E+00 -9.671138344E+00  9.671138344E+00  0.000000000E+00  0.00000E+00  9.000E+00
      23     2     1     2     0     0  0.000000000E+00  0.000000000E+00  2.002437890E+02  2.195860656E+02  9.011362388E+01  0.00000E+00  9.000E+00
      11     1     3     3     0     0  2.840401331E+01 -1.810390285E+01  1.730451076E+02  1.762927920E+02  5.109989100E-04  0.00000E+00  9.000E+00
     -11     1     3     3     0     0 -2.840401331E+01  1.810390285E+01  2.719868141E+01  4.329327363E+01  5.109989100E-04  0.00000E+00  9.000E+00
#rwgt            1           5   507.01285960699272         54217137       44269           0
#pdf  -1  1 0.52478732E-01 0.24177846E-02 0.90113624E+02 0.16725779E+00 0.11209286E+01
</event>
<event>
      5  10011  2.10784E+03  1.00000E+01 -1.00000E+00  1.94628E-01
      -2    -1     0     0     0   501  0.000000000E+00  0.000000000E+00  3.015858468E+00  3.015858468E+00  0.000000000E+00  0.00000E+00  9.000E+00
       2    -1     0     0   501     0  0.000000000E+00  0.000000000E+00 -4.140088693E+01  4.140088693E+01  0.000000000E+00  0.00000E+00  9.000E+00
      23     2     1     2     0     0  0.000000000E+00  0.000000000E+00 -3.838502847E+01  4.441674540E+01  2.234808408E+01  0.00000E+00  9.000E+00
      11     1     3     3     0     0  6.653606746E+00 -1.479867352E+00 -1.594610548E+00  7.000233794E+00  5.109989100E-04  0.00000E+00  9.000E+00
     -11     1     3     3     0     0 -6.653606746E+00  1.479867352E+00 -3.679041792E+01  3.741651161E+01  5.109989100E-04  0.00000E+00  9.000E+00
#rwgt            1           4   13494.555877148716         54217137       44359           0
#pdf  -2  2 0.75396462E-03 0.10350222E-01 0.22348084E+02 0.12810854E+01 0.72018664E+00
</event>
<event>
      6  10011  2.10784E+03  4.97579E+01 -1.00000E+00  1.39192E-01
       2    -1     0     0   501     0  0.000000000E+00  0.000000000E+00  9.982596734E+02  9.982596734E+02  0.000000000E+00  0.00000E+00  9.000E+00
      21    -1     0     0   511   501  0.000000000E+00  0.000000000E+00 -6.920931684E+00  6.920931684E+00  0.000000000E+00  0.00000E+00  9.000E+00
      23     2     1     2     0     0 -4.931477151E+01 -6.625489440E+00  8.220218060E+02  8.287037836E+02  9.248928384E+01  0.00000E+00  9.000E+00
      11     1     3     3     0     0 -5.141163160E+01 -3.302415345E+01  7.398755959E+02  7.423945366E+02  5.109989100E-04  0.00000E+00  9.000E+00
     -11     1     3     3     0     0  2.096860094E+00  2.639866401E+01  8.214621013E+01  8.630924703E+01  5.109989100E-04  0.00000E+00  9.000E+00
       2     1     1     2   511     0  4.931477151E+01  6.625489440E+00  1.693169358E+02  1.764768215E+02  0.000000000E+00  0.00000E+00  9.000E+00
#rwgt            1           7   815.60843039854126         54217137       44388           0
#pdf   2 -2 0.18171315E+00 0.73555728E-03 0.92489284E+02 0.53648463E+00 0.17355879E+01
</event>
<event>
      5  10011  2.10784E+03  1.00000E+01 -1.00000E+00  1.89639E-01
      -4    -1     0     0     0   501  0.000000000E+00  0.000000000E+00  4.368022201E+00  4.368022201E+00  0.000000000E+00  0.00000E+00  9.000E+00
       4    -1     0     0   501     0  0.000000000E+00  0.000000000E+00 -6.804388066E+01  6.804388066E+01  0.000000000E+00  0.00000E+00  9.000E+00
      23     2     1     2     0     0  0.000000000E+00  0.000000000E+00 -6.367585846E+01  7.241190286E+01  3.447997572E+01  0.00000E+00  9.000E+00
      11     1     3     3     0     0  5.131381504E+00 -1.457796964E+01 -1.579314853E+01  2.209687344E+01  5.109989100E-04  0.00000E+00  9.000E+00
     -11     1     3     3     0     0 -5.131381504E+00  1.457796964E+01 -4.788270993E+01  5.031502942E+01  5.109989100E-04  0.00000E+00  9.000E+00
#rwgt            1           2   601.55974999569742         54217137       44572           0
#pdf  -4  4 0.10920056E-02 0.17010970E-01 0.34479976E+02 0.92582149E+00 0.21202704E+00
</event>
<event>
      6  10011  2.10784E+03  2.71090E+01 -1.00000E+00  1.56156E-01
       2    -1     0     0   501     0  0.000000000E+00  0.000000000E+00  6.855433593E+01  6.855433593E+01  0.000000000E+00  0.00000E+00  9.000E+00
      -2    -1     0     0     0   511  0.000000000E+00  0.000000000E+00 -9.165008657E+01  9.165008657E+01  0.000000000E+00  0.00000E+00  9.000E+00
      23     2     1     2     0     0  2.590371713E+01  7.993444159E+00  3.135830273E+01  9.937563295E+01  9.031763706E+01  0.00000E+00  9.000E+00
      11     1     3     3     0     0  2.803996071E+00 -7.050411415E+00 -3.061852792E+01  3.154465006E+01  5.109989100E-04  0.00000E+00  9.000E+00
     -11     1     3     3     0     0  2.309972106E+01  1.504385557E+01  6.197683065E+01  6.783098290E+01  5.109989100E-04  0.00000E+00  9.000E+00
      21     1     1     2   501   511 -2.590371713E+01 -7.993444159E+00 -5.445405337E+01  6.082878955E+01  6.743495762E-07  0.00000E+00  9.000E+00
#rwgt            1           7   447.52727898316476         54217137       44729           0
#pdf   2 -2 0.15651896E-01 0.81432581E-02 0.90317637E+02 0.74812298E+00 0.62755198E+00
</event>
<event>
      6  10011  2.10784E+03  1.22432E+01 -1.00000E+00  1.86110E-01
      21    -1     0     0   501   511  0.000000000E+00  0.000000000E+00  2.065249050E+02  2.065249050E+02  0.000000000E+00  0.00000E+00  9.000E+00
      -3    -1     0     0     0   501  0.000000000E+00  0.000000000E+00 -3.551097625E+01  3.551097625E+01  0.000000000E+00  0.00000E+00  9.000E+00
      23     2     1     2     0     0 -1.057976882E+01  6.161442351E+00  3.750032965E+01  1.079621104E+02  1.004970033E+02  0.00000E+00  9.000E+00
      11     1     3     3     0     0  2.139149488E+01 -7.456820372E-01  6.296870486E+01  6.650721680E+01  5.109989100E-04  0.00000E+00  9.000E+00
     -11     1     3     3     0     0 -3.197126370E+01  6.907124388E+00 -2.546837521E+01  4.145489363E+01  5.109989100E-04  0.00000E+00  9.000E+00
      -3     1     1     2     0   511  1.057976882E+01 -6.161442351E+00  1.335135991E+02  1.340737708E+02  0.000000000E+00  0.00000E+00  9.000E+00
#rwgt            1           8   200.81571368097627         54217137       44842           0
#pdf   3 -3 0.18049358E-01 0.87430809E-02 0.10049700E+03 0.33494134E+00 0.52390569E+00
</event>
<event>
      5  10011  2.10784E+03  1.00000E+01 -1.00000E+00  1.87672E-01
       2    -1     0     0   501     0  0.000000000E+00  0.000000000E+00  1.591860702E+01  1.591860702E+01  0.000000000E+00  0.00000E+00  9.000E+00
      -2    -1     0     0     0   501  0.000000000E+00  0.000000000E+00 -1.357266148E+02  1.357266148E+02  0.000000000E+00  0.00000E+00  9.000E+00
      23     2     1     2     0     0  0.000000000E+00  0.000000000E+00 -1.198080078E+02  1.516452219E+02  9.296404990E+01  0.00000E+00  9.000E+00
      11     1     3     3     0     0 -5.151937218E+00  2.614681109E+01 -1.220273250E+02  1.249034277E+02  5.109989100E-04  0.00000E+00  9.000E+00
     -11     1     3     3     0     0  5.151937218E+00 -2.614681109E+01  2.219317219E+00  2.674179419E+01  5.109989100E-04  0.00000E+00  9.000E+00
#rwgt            1           7   337.89546038264126         54217137       44903           0
#pdf   2 -2 0.39796518E-02 0.33931654E-01 0.92964050E+02 0.10244445E+01 0.28594171E+00
</event>
<event>
      5  10011  2.10784E+03  1.00000E+01 -1.00000E+00  1.48351E-01
       2    -1     0     0   501     0  0.000000000E+00  0.000000000E+00  1.678797297E+02  1.678797297E+02  0.000000000E+00  0.00000E+00  9.000E+00
      -2    -1     0     0     0   501  0.000000000E+00  0.000000000E+00 -9.944254638E+00  9.944254638E+00  0.000000000E+00  0.00000E+00  9.000E+00
      23     2     1     2     0     0  0.000000000E+00  0.000000000E+00  1.579354751E+02  1.778239844E+02  8.171753254E+01  0.00000E+00  9.000E+00
      11     1     3     3     0     0  1.180589831E+01  2.639568749E+01  1.614991501E+01  3.311995332E+01  5.109989100E-04  0.00000E+00  9.000E+00
     -11     1     3     3     0     0 -1.180589831E+01 -2.639568749E+01  1.417855601E+02  1.447040311E+02  5.109989100E-04  0.00000E+00  9.000E+00
#rwgt            1           7   377.67997279094226         54217137       45141           0
#pdf   2 -2 0.41969932E-01 0.24860637E-02 0.81717533E+02 0.67709494E+00 0.10497907E+01
</event>
<event>
      5  10011  2.10784E+03  1.00000E+01 -1.00000E+00  1.92434E-01
       2    -1     0     0   501     0  0.000000000E+00  0.000000000E+00  9.673956946E+02  9.673956946E+02  0.000000000E+00  0.00000E+00  9.000E+00
      -2    -1     0     0     0   501  0.000000000E+00  0.000000000E+00 -9.089999482E-01  9.089999482E-01  0.000000000E+00  0.00000E+00  9.000E+00
      23     2     1     2     0     0  0.000000000E+00  0.000000000E+00  9.664866947E+02  9.683046946E+02  5.930809848E+01  0.00000E+00  9.000E+00
      11     1     3     3     0     0  1.722005069E+01  1.931972562E+01  2.468835154E+02  2.482362829E+02  5.109989100E-04  0.00000E+00  9.000E+00
     -11     1     3     3     0     0 -1.722005069E+01 -1.931972562E+01  7.196031792E+02  7.200684117E+02  5.109989100E-04  0.00000E+00  9.000E+00
#rwgt            1           7   2068.2518965136810         54217137       45185           0
#pdf   2 -2 0.24184892E+00 0.22724999E-03 0.59308098E+02 0.47215473E+00 0.24246163E+01
</event>
<event>
      5  10011  2.10784E+03  1.00000E+01 -1.00000E+00  1.78387E-01
       1    -1     0     0   501     0  0.000000000E+00  0.000000000E+00  4.098492871E+02  4.098492871E+02  0.000000000E+00  0.00000E+00  9.000E+00
      -1    -1     0     0     0   501  0.000000000E+00  0.000000000E+00 -2.474992511E-01  2.474992511E-01  0.000000000E+00  0.00000E+00  9.000E+00
      23     2     1     2     0     0  0.000000000E+00  0.000000000E+00  4.096017879E+02  4.100967864E+02  2.014322632E+01  0.00000E+00  9.000E+00
      11     1     3     3     0     0 -2.091010724E+00 -2.282476763E+00  3.999244033E+02  3.999363829E+02  5.109989100E-04  0.00000E+00  9.000E+00
     -11     1     3     3     0     0  2.091010724E+00  2.282476763E+00  9.677384610E+00  1.016040349E+01  5.109989100E-04  0.00000E+00  9.000E+00
#rwgt            1           6   8845.4072571956931         54217137       45407           0
#pdf   1 -1 0.10246232E+00 0.61874813E-04 0.20143226E+02 0.37318253E+00 0.26141335E+01
</event>
<event>
      5  10011  2.10784E+03  1.00000E+01 -1.00000E+00  1.82444E-01
       2    -1     0     0   501     0  0.000000000E+00  0.000000000E+00  2.811293910E+02  2.811293910E+02  0.000000000E+00  0.00000E+00  9.000E+00
      -2    -1     0     0     0   501  0.000000000E+00  0.000000000E+00 -2.423446989E+00  2.423446989E+00  0.000000000E+00  0.00000E+00  9.000E+00
      23     2     1     2     0     0  0.000000000E+00  0.000000000E+00  2.787059440E+02  2.835528380E+02  5.220353153E+01  0.00000E+00  9.000E+00
      11     1     3     3     0     0  2.320640708E+00 -1.470373121E+01  2.289226035E+01  2.730642175E+01  5.109989100E-04  0.00000E+00  9.000E+00
     -11     1     3     3     0     0 -2.320640708E+00  1.470373121E+01  2.558136836E+02  2.562464162E+02  5.109989100E-04  0.00000E+00  9.000E+00
#rwgt            1           7   1505.9273840189549         54217137       45428           0
#pdf   2 -2 0.70282348E-01 0.60586175E-03 0.52203532E+02 0.65677774E+00 0.16749470E+01
</event>
<event>
      5  10011  2.10784E+03  1.00000E+01 -1.00000E+00  1.92816E-01
       3    -1     0     0   501     0  0.000000000E+00  0.000000000E+00  3.200022478E+00  3.200022478E+00  0.000000000E+00  0.00000E+00  9.000E+00
      -3    -1     0     0     0   501  0.000000000E+00  0.000000000E+00 -3.073031239E+02  3.073031239E+02  0.000000000E+00  0.00000E+00  9.000E+00
      23     2     1     2     0     0  0.000000000E+00  0.000000000E+00 -3.041031015E+02  3.105031464E+02  6.271768185E+01  0.00000E+00  9.000E+00
      11     1     3     3     0     0 -1.691503027E+01  2.465073974E+01 -1.989144604E+02  2.011485515E+02  5.109989100E-04  0.00000E+00  9.000E+00
     -11     1     3     3     0     0  1.691503027E+01 -2.465073974E+01 -1.051886411E+02  1.093545949E+02  5.109989100E-04  0.00000E+00  9.000E+00
#rwgt            1           8   58.211668971823258         54217137       45556           0
#pdf   3 -3 0.80000562E-03 0.76825781E-01 0.62717682E+02 0.14589142E+01 0.89871320E-01
</event>
<event>
      6  10011  2.10784E+03  4.81891E+01 -1.00000E+00  1.39992E-01
      21    -1     0     0   511   501  0.000000000E+00  0.000000000E+00  3.918046057E+00  3.918046057E+00  0.000000000E+00  0.00000E+00  9.000E+00
       2    -1     0     0   501     0  0.000000000E+00  0.000000000E+00 -2.595796298E+03  2.595796298E+03  0.000000000E+00  0.00000E+00  9.000E+00
      23     2     1     2     0     0  4.807010017E+01 -3.384448278E+00 -2.394276551E+03  2.396321569E+03  8.645615583E+01  0.00000E+00  9.000E+00
      11     1     3     3     0     0  6.483715908E+00 -2.715517784E+01 -2.576569654E+02  2.591651097E+02  5.109989100E-04  0.00000E+00  9.000E+00
     -11     1     3     3     0     0  4.158638426E+01  2.377072956E+01 -2.136619586E+03  2.137156459E+03  5.109989100E-04  0.00000E+00  9.000E+00
       2     1     1     2   511     0 -4.807010017E+01  3.384448278E+00 -1.976017005E+02  2.033927753E+02  0.000000000E+00  0.00000E+00  9.000E+00
#rwgt            1           4   3235.4088829384732         54217137       45629           0
#pdf  -2  2 0.22328500E-03 0.52306097E+00 0.86456156E+02 0.26555193E+01 0.93908180E-01
</event>
<event>
      6  10011  2.10784E+03  4.27278E+01 -1.00000E+00  1.43082E-01
      21    -1     0     0   511   501  0.000000000E+00  0.000000000E+00  3.171439828E+01  3.171439828E+01  0.000000000E+00  0.00000E+00  9.000E+00
       1    -1     0     0   501     0  0.000000000E+00  0.000000000E+00 -4.842063084E+02  4.842063084E+02  0.000000000E+00  0.00000E+00  9.000E+00
      23     2     1     2     0     0  4.115667937E+01 -1.148019838E+01 -4.572007675E+02  4.729341908E+02  1.131748197E+02  0.00000E+00  9.000E+00
      11     1     3     3     0     0  5.298278872E+01  1.117806692E+01 -4.370379800E+02  4.403797464E+02  5.109989100E-04  0.00000E+00  9.000E+00
     -11     1     3     3     0     0 -1.182610935E+01 -2.265826530E+01 -2.016278746E+01  3.255444436E+01  5.109989100E-04  0.00000E+00  9.000E+00
       1     1     1     2   511     0 -4.115667937E+01  1.148019838E+01  4.708857356E+00  4.298651590E+01  0.000000000E+00  0.00000E+00  9.000E+00
#rwgt            1           5   531.38736347305064         54217137       45672           0
#pdf  -1  1 0.18399179E-02 0.10877302E+00 0.11317482E+03 0.12300109E+01 0.33840975E+00
</event>
<event>
      5  10011  2.10784E+03  1.00000E+01 -1.00000E+00  1.86030E-01
       1    -1     0     0   501     0  0.000000000E+00  0.000000000E+00  2.252518103E+00  2.252518103E+00  0.000000000E+00  0.00000E+00  9.000E+00
      -1    -1     0     0     0   501  0.000000000E+00  0.000000000E+00 -5.230241048E+01  5.230241048E+01  0.000000000E+00  0.00000E+00  9.000E+00
      23     2     1     2     0     0  0.000000000E+00  0.000000000E+00 -5.004989238E+01  5.455492859E+01  2.170825893E+01  0.00000E+00  9.000E+00
      11     1     3     3     0     0  3.462776960E+00 -7.616825990E+00 -7.649064220E+00  1.133644769E+01  5.109989100E-04  0.00000E+00  9.000E+00
     -11     1     3     3     0     0 -3.462776960E+00  7.616825990E+00 -4.240082816E+01  4.321848090E+01  5.109989100E-04  0.00000E+00  9.000E+00
#rwgt            1           6   9562.6291384573087         54217137       45720           0
#pdf   1 -1 0.56312953E-03 0.13075603E-01 0.21708259E+02 0.14111895E+01 0.41579167E+00
</event>
<event>
      6  10011  2.10784E+03  5.54481E+01 -1.00000E+00  1.36557E-01
      -2    -1     0     0     0   511  0.000000000E+00  0.000000000E+00  1.244850549E+01  1.244850549E+01  0.000000000E+00  0.00000E+00  9.000E+00
       2    -1     0     0   501     0  0.000000000E+00  0.000000000E+00 -1.162437597E+03  1.162437597E+03  0.000000000E+00  0.00000E+00  9.000E+00
      23     2     1     2     0     0 -2.091541897E+01  5.135209364E+01 -1.081692216E+03  1.086914769E+03  9.083596937E+01  0.00000E+00  9.000E+00
      11     1     3     3     0     0 -3.015246773E+01  5.687934714E+01 -1.065667381E+03  1.067610134E+03  5.109989100E-04  0.00000E+00  9.000E+00
     -11     1     3     3     0     0  9.237048754E+00 -5.527253492E+00 -1.602483435E+01  1.930463460E+01  5.109989100E-04  0.00000E+00  9.000E+00
      21     1     1     2   501   511  2.091541897E+01 -5.135209364E+01 -6.829687597E+01  8.797133362E+01  3.162979880E-06  0.00000E+00  9.000E+00
#rwgt            1           4   2264.8158052227805         54217137       45881           0
#pdf  -2  2 0.55720998E-03 0.23137522E+00 0.90835969E+02 0.19220396E+01 0.47025661E+00
</event>
<event>
      6  10011  2.10784E+03  2.25968E+01 -1.00000E+00  1.62105E-01
       1    -1     0     0   501     0  0.000000000E+00  0.000000000E+00  9.039341702E+02  9.039341702E+02  0.000000000E+00  0.00000E+00  9.000E+00
      21    -1     0     0   511   501  0.000000000E+00  0.000000000E+00 -1.828942381E+01  1.828942381E+01  0.000000000E+00  0.00000E+00  9.000E+00
      23     2     1     2     0     0 -1.174062529E+00 -2.256626893E+01  8.932217237E+02  8.983903085E+02  9.353867473E+01  0.00000E+00  9.000E+00
      11     1     3     3     0     0 -8.024833919E+00 -3.440669845E+01  8.744479307E+02  8.751613579E+02  5.109989100E-04  0.00000E+00  9.000E+00
     -11     1     3     3     0     0  6.850771390E+00  1.184042951E+01  1.877379312E+01  2.322895065E+01  5.109989100E-04  0.00000E+00  9.000E+00
       1     1     1     2   511     0  1.174062529E+00  2.256626893E+01 -7.576977310E+00  2.383328558E+01  0.000000000E+00  0.00000E+00  9.000E+00
#rwgt            1           6   611.72958176189900         54217137       46019           0
#pdf   1 -1 0.21768945E+00 0.62800783E-03 0.93538675E+02 0.21361259E+00 0.18413843E+01
</event>
<event>
      5  10011  2.10784E+03  1.00000E+01 -1.00000E+00  1.91728E-01
      -3    -1     0     0     0   501  0.000000000E+00  0.000000000E+00  8.196906007E+01  8.196906007E+01  0.000000000E+00  0.00000E+00  9.000E+00
       3    -1     0     0   501     0  0.000000000E+00  0.000000000E+00 -2.546085619E+01  2.546085619E+01  0.000000000E+00  0.00000E+00  9.000E+00
      23     2     1     2     0     0  0.000000000E+00  0.000000000E+00  5.650820388E+01  1.074299163E+02  9.136744388E+01  0.00000E+00  9.000E+00
      11     1     3     3     0     0  2.952356592E+01  3.871086302E+00 -1.248321758E+01  3.228710230E+01  5.109989100E-04  0.00000E+00  9.000E+00
     -11     1     3     3     0     0 -2.952356592E+01 -3.871086302E+00  6.899142146E+01  7.514281396E+01  5.109989100E-04  0.00000E+00  9.000E+00
#rwgt            1           3   202.64760548434407         54217137       46124           0
#pdf  -3  3 0.20492265E-01 0.63652140E-02 0.91367444E+02 0.30527454E+00 0.61601705E+00
</event>
<event>
      6  10011  2.10784E+03  1.82582E+01 -1.00000E+00  1.69696E-01
       3    -1     0     0   501     0  0.000000000E+00  0.000000000E+00  2.346888373E+01  2.346888373E+01  0.000000000E+00  0.00000E+00  9.000E+00
      -3    -1     0     0     0   511  0.000000000E+00  0.000000000E+00 -1.336127719E+02  1.336127719E+02  0.000000000E+00  0.00000E+00  9.000E+00
      23     2     1     2     0     0 -1.769822836E+01 -4.487216150E+00 -8.529904752E+01  1.262493916E+02  9.126674634E+01  0.00000E+00  9.000E+00
      11     1     3     3     0     0 -4.787563857E+01 -9.671566976E+00 -8.201113285E+01  9.545387309E+01  5.109989100E-04  0.00000E+00  9.000E+00
     -11     1     3     3     0     0  3.017741021E+01  5.184350826E+00 -3.287914673E+00  3.079551856E+01  5.109989100E-04  0.00000E+00  9.000E+00
      21     1     1     2   501   511  1.769822836E+01  4.487216150E+00 -2.484484069E+01  3.083226403E+01  0.000000000E+00  0.00000E+00  9.000E+00
#rwgt            1           8   137.11572541961920         54217137       46270           0
#pdf   3 -3 0.50193381E-02 0.25929773E-01 0.91266746E+02 0.69509619E+00 0.25682098E+00
</event>
<event>
      5  10011  2.10784E+03  1.00000E+01 -1.00000E+00  1.69190E-01
      -4    -1     0     0     0   501  0.000000000E+00  0.000000000E+00  8.203668529E+00  8.203668529E+00  0.000000000E+00  0.00000E+00  9.000E+00
       4    -1     0     0   501     0  0.000000000E+00  0.000000000E+00 -3.080345555E+01  3.080345555E+01  0.000000000E+00  0.00000E+00  9.000E+00
      23     2     1     2     0     0  0.000000000E+00  0.000000000E+00 -2.259978702E+01  3.900712408E+01  3.179316523E+01  0.00000E+00  9.000E+00
      11     1     3     3     0     0 -8.716135894E+00 -1.689179502E+00 -2.747813139E+01  2.887684292E+01  5.109989100E-04  0.00000E+00  9.000E+00
     -11     1     3     3     0     0  8.716135894E+00  1.689179502E+00  4.878344367E+00  1.013028116E+01  5.109989100E-04  0.00000E+00  9.000E+00
#rwgt            1           2   1203.1998546536124         54217137       46478           0
#pdf  -4  4 0.20509171E-02 0.77008639E-02 0.31793165E+02 0.68923632E+00 0.35251538E+00
</event>
<event>
      5  10011  2.10784E+03  1.00000E+01 -1.00000E+00  1.85987E-01
       1    -1     0     0   501     0  0.000000000E+00  0.000000000E+00  4.424128373E+01  4.424128373E+01  0.000000000E+00  0.00000E+00  9.000E+00
      -1    -1     0     0     0   501  0.000000000E+00  0.000000000E+00 -4.765465439E+01  4.765465439E+01  0.000000000E+00  0.00000E+00  9.000E+00
      23     2     1     2     0     0  0.000000000E+00  0.000000000E+00 -3.413370669E+00  9.189593812E+01  9.183252334E+01  0.00000E+00  9.000E+00
      11     1     3     3     0     0  4.048419028E+01  8.256446158E+00  1.833623757E+01  4.520349736E+01  5.109989100E-04  0.00000E+00  9.000E+00
     -11     1     3     3     0     0 -4.048419028E+01 -8.256446158E+00 -2.174960824E+01  4.669244076E+01  5.109989100E-04  0.00000E+00  9.000E+00
#rwgt            1           6   279.95669189523346         54217137       46631           0
#pdf   1 -1 0.11060321E-01 0.11913664E-01 0.91832523E+02 0.64883206E+00 0.49037245E+00
</event>
<event>
      6  10011  2.10784E+03  1.05926E+01 -1.00000E+00  1.92904E-01
       1    -1     0     0   511     0  0.000000000E+00  0.000000000E+00  4.090403629E+01  4.090403629E+01  0.000000000E+00  0.00000E+00  9.000E+00
      -1    -1     0     0     0   501  0.000000000E+00  0.000000000E+00 -6.857112212E+01  6.857112212E+01  0.000000000E+00  0.00000E+00  9.000E+00
      23     2     1     2     0     0 -1.013312532E+01 -3.085917334E+00 -3.512690142E+01  9.651938892E+01  8.927424107E+01  0.00000E+00  9.000E+00
      11     1     3     3     0     0 -3.999762522E+01 -2.872356614E+01 -2.758824876E+01  5.644435087E+01  5.109989100E-04  0.00000E+00  9.000E+00
     -11     1     3     3     0     0  2.986449990E+01  2.563764880E+01 -7.538652654E+00  4.007503805E+01  5.109989100E-04  0.00000E+00  9.000E+00
      21     1     1     2   511   501  1.013312532E+01  3.085917334E+00  7.459815584E+00  1.295576949E+01  8.429369702E-08  0.00000E+00  9.000E+00
#rwgt            1           6   635.52973969474522         54217137       46767           0
#pdf   1 -1 0.76206055E-02 0.16341160E-01 0.89274241E+02 0.73566290E+00 0.40652142E+00
</event>
<event>
      5  10011  2.10784E+03  1.00000E+01 -1.00000E+00  1.92056E-01
       1    -1     0     0   501     0  0.000000000E+00  0.000000000E+00  2.075304504E+02  2.075304504E+02  0.000000000E+00  0.00000E+00  9.000E+00
      -1    -1     0     0     0   501  0.000000000E+00  0.000000000E+00 -1.002109031E+01  1.002109031E+01  0.000000000E+00  0.00000E+00  9.000E+00
      23     2     1     2     0     0  0.000000000E+00  0.000000000E+00  1.975093601E+02  2.175515408E+02  9.120704766E+01  0.00000E+00  9.000E+00
      11     1     3     3     0     0 -1.579312890E+01 -2.600103426E+01  1.797901549E+02  1.823457609E+02  5.109989100E-04  0.00000E+00  9.000E+00
     -11     1     3     3     0     0  1.579312890E+01  2.600103426E+01  1.771920522E+01  3.520577988E+01  5.109989100E-04  0.00000E+00  9.000E+00
#rwgt            1           6   2039.9914920106905         54217137       46856           0
#pdf   1 -1 0.51882613E-01 0.25052726E-02 0.91207048E+02 0.42534439E+00 0.10481141E+01
</event>
<event>
      6  10011  2.10784E+03  6.91413E+01 -1.00000E+00  1.31490E-01
      21    -1     0     0   511   501  0.000000000E+00  0.000000000E+00  1.393971873E+01  1.393971873E+01  0.000000000E+00  0.00000E+00  9.000E+00
       2    -1     0     0   501     0  0.000000000E+00  0.000000000E+00 -1.433397294E+03  1.433397294E+03  0.000000000E+00  0.00000E+00  9.000E+00
      23     2     1     2     0     0 -3.302668077E+01  6.074336573E+01 -1.325447635E+03  1.330639168E+03  9.491387395E+01  0.00000E+00  9.000E+00
      11     1     3     3     0     0  1.654860131E+01  6.151183740E+01 -9.135662018E+02  9.157842362E+02  5.109989100E-04  0.00000E+00  9.000E+00
     -11     1     3     3     0     0 -4.957528208E+01 -7.684716691E-01 -4.118814336E+02  4.148549319E+02  5.109989100E-04  0.00000E+00  9.000E+00
       2     1     1     2   511     0  3.302668077E+01 -6.074336573E+01 -9.400993951E+01  1.166978442E+02  0.000000000E+00  0.00000E+00  9.000E+00
#rwgt            1           4   11092.068700936175         54217137       46950           0
#pdf  -2  2 0.52452523E-03 0.26835707E+00 0.94913874E+02 0.19818639E+01 0.41490767E+00
</event>
<event>
      5  10011  2.10784E+03  1.00000E+01 -1.00000E+00  1.72052E-01
       1    -1     0     0   501     0  0.000000000E+00  0.000000000E+00  1.767410271E+02  1.767410271E+02  0.000000000E+00  0.00000E+00  9.000E+00
      -1    -1     0     0     0   501  0.000000000E+00  0.000000000E+00 -1.209994973E+01  1.209994973E+01  0.000000000E+00  0.00000E+00  9.000E+00
      23     2     1     2     0     0  0.000000000E+00  0.000000000E+00  1.646410774E+02  1.888409769E+02  9.248908139E+01  0.00000E+00  9.000E+00
      11     1     3     3     0     0 -1.575605024E+01  1.087264353E+01  1.682710898E+02  1.693565090E+02  5.109989100E-04  0.00000E+00  9.000E+00
     -11     1     3     3     0     0  1.575605024E+01 -1.087264353E+01 -3.630012383E+00  1.948446783E+01  5.109989100E-04  0.00000E+00  9.000E+00
#rwgt            1           6   533.52004188037120         54217137       47014           0
#pdf   1 -1 0.44185257E-01 0.30249874E-02 0.92489081E+02 0.44195254E+00 0.96693463E+00
</event>
<event>
      6  10011  2.10784E+03  1.09969E+01 -1.00000E+00  1.91097E-01
      -2    -1     0     0     0   501  0.000000000E+00  0.000000000E+00  8.195817008E+02  8.195817008E+02  0.000000000E+00  0.00000E+00  9.000E+00
      21    -1     0     0   501   511  0.000000000E+00  0.000000000E+00 -3.052814708E+00  3.052814708E+00  0.000000000E+00  0.00000E+00  9.000E+00
      23     2     1     2     0     0 -9.870032333E+00 -4.849225858E+00  7.337727507E+01  7.940154430E+01  2.827451521E+01  0.00000E+00  9.000E+00
      11     1     3     3     0     0 -2.834495027E+00  2.327110266E+00 -1.419578967E+00  3.932557559E+00  5.109989100E-04  0.00000E+00  9.000E+00
     -11     1     3     3     0     0 -7.035537305E+00 -7.176336124E+00  7.479685404E+01  7.546898674E+01  5.109989100E-04  0.00000E+00  9.000E+00
      -2     1     1     2     0   511  9.870032333E+00  4.849225858E+00  7.431516110E+02  7.432329712E+02  0.000000000E+00  0.00000E+00  9.000E+00
#rwgt            1           4   299.50005801635069         54217137       47248           0
#pdf  -2  2 0.17798548E-01 0.70182008E-03 0.28274515E+02 0.39516013E+00 0.14398671E+01
</event>
<event>
      5  10011  2.10784E+03  1.00000E+01 -1.00000E+00  1.89692E-01
       2    -1     0     0   501     0  0.000000000E+00  0.000000000E+00  2.065576276E+00  2.065576276E+00  0.000000000E+00  0.00000E+00  9.000E+00
      -2    -1     0     0     0   501  0.000000000E+00  0.000000000E+00 -5.346611013E+01  5.346611013E+01  0.000000000E+00  0.00000E+00  9.000E+00
      23     2     1     2     0     0  0.000000000E+00  0.000000000E+00 -5.140053385E+01  5.553168640E+01  2.101792841E+01  0.00000E+00  9.000E+00
      11     1     3     3     0     0  3.659608267E+00 -5.139281794E+00 -4.790553105E+01  4.831919759E+01  5.109989100E-04  0.00000E+00  9.000E+00
     -11     1     3     3     0     0 -3.659608267E+00  5.139281794E+00 -3.495002796E+00  7.212488810E+00  5.109989100E-04  0.00000E+00  9.000E+00
#rwgt            1           7   9025.9377688967998         54217137       47285           0
#pdf   2 -2 0.51639407E-03 0.13366528E-01 0.21017928E+02 0.14620444E+01 0.43980187E+00
</event>
<event>
      6  10011  2.10784E+03  1.22367E+01 -1.00000E+00  1.86134E-01
      21    -1     0     0   511   501  0.000000000E+00  0.000000000E+00  5.552773447E+00  5.552773447E+00  0.000000000E+00  0.00000E+00  9.000E+00
       2    -1     0     0   501     0  0.000000000E+00  0.000000000E+00 -5.626781127E+02  5.626781127E+02  0.000000000E+00  0.00000E+00  9.000E+00
      23     2     1     2     0     0  1.168754034E+01  3.624577860E+00 -5.535536582E+02  5.554836092E+02  4.461671695E+01  0.00000E+00  9.000E+00
      11     1     3     3     0     0 -9.495739526E+00 -1.436504692E+01 -1.527393279E+02  1.537069482E+02  5.109989100E-04  0.00000E+00  9.000E+00
     -11     1     3     3     0     0  2.118327987E+01  1.798962478E+01 -4.008143303E+02  4.017766610E+02  5.109989100E-04  0.00000E+00  9.000E+00
       2     1     1     2   511     0 -1.168754034E+01 -3.624577860E+00 -3.571681059E+00  1.274727694E+01  0.000000000E+00  0.00000E+00  9.000E+00
#rwgt            1           4   2723.1282630346636         54217137       47331           0
#pdf  -2  2 0.23265249E-03 0.13369266E+00 0.44616717E+02 0.22440483E+01 0.61162111E+00
</event>
<event>
      5  10011  2.10784E+03  1.00000E+01 -1.00000E+00  1.93215E-01
       1    -1     0     0   501     0  0.000000000E+00  0.000000000E+00  4.697755808E+02  4.697755808E+02  0.000000000E+00  0.00000E+00  9.000E+00
      -1    -1     0     0     0   501  0.000000000E+00  0.000000000E+00 -4.197980399E+00  4.197980399E+00  0.000000000E+00  0.00000E+00  9.000E+00
      23     2     1     2     0     0  0.000000000E+00  0.000000000E+00  4.655776004E+02  4.739735612E+02  8.881686056E+01  0.00000E+00  9.000E+00
      11     1     3     3     0     0  3.663109066E+00 -2.410238163E+01  3.470618847E+01  4.241300139E+01  5.109989100E-04  0.00000E+00  9.000E+00
     -11     1     3     3     0     0 -3.663109066E+00  2.410238163E+01  4.308714119E+02  4.315605598E+02  5.109989100E-04  0.00000E+00  9.000E+00
#rwgt            1           6   538.41052719516756         54217137       47428           0
#pdf   1 -1 0.11744390E+00 0.10494951E-02 0.88816861E+02 0.33113250E+00 0.14950427E+01
</event>
<event>
      5  10011  2.10784E+03  1.00000E+01 -1.00000E+00  1.49482E-01
       2    -1     0     0   501     0  0.000000000E+00  0.000000000E+00  9.315209973E+02  9.315209973E+02  0.000000000E+00  0.00000E+00  9.000E+00
      -2    -1     0     0     0   501  0.000000000E+00  0.000000000E+00 -1.398134982E-01  1.398134982E-01  0.000000000E+00  0.00000E+00  9.000E+00
      23     2     1     2     0     0  0.000000000E+00  0.000000000E+00  9.313811838E+02  9.316608108E+02  2.282447890E+01  0.00000E+00  9.000E+00
      11     1     3     3     0     0  6.655873557E-01 -9.211840744E+00  1.920599323E+02  1.922818728E+02  5.109989100E-04  0.00000E+00  9.000E+00
     -11     1     3     3     0     0 -6.655873557E-01  9.211840744E+00  7.393212516E+02  7.393789380E+02  5.109989100E-04  0.00000E+00  9.000E+00
#rwgt            1           7   232618.16457364566         54217137       47628           0
#pdf   2 -2 0.23288025E+00 0.34953375E-04 0.22824479E+02 0.52779613E+00 0.32091120E+01
</event>
<event>
      5  10011  2.10784E+03  1.00000E+01 -1.00000E+00  1.86413E-01
      -3    -1     0     0     0   501  0.000000000E+00  0.000000000E+00  1.137238969E+02  1.137238969E+02  0.000000000E+00  0.00000E+00  9.000E+00
       3    -1     0     0   501     0  0.000000000E+00  0.000000000E+00 -1.735908396E+01  1.735908396E+01  0.000000000E+00  0.00000E+00  9.000E+00
      23     2     1     2     0     0  0.000000000E+00  0.000000000E+00  9.636481291E+01  1.310829808E+02  8.886265075E+01  0.00000E+00  9.000E+00
      11     1     3     3     0     0 -1.778342783E+01 -1.326862907E+01 -8.601738896E+00  2.379699004E+01  5.109989100E-04  0.00000E+00  9.000E+00
     -11     1     3     3     0     0  1.778342783E+01  1.326862907E+01  1.049665518E+02  1.072859908E+02  5.109989100E-04  0.00000E+00  9.000E+00
#rwgt            1           3   471.89975026424315         54217137       47658           0
#pdf  -3  3 0.28430974E-01 0.43397710E-02 0.88862651E+02 0.23882162E+00 0.74435878E+00
</event>
<event>
      5  10011  2.10784E+03  1.00000E+01 -1.00000E+00  1.83654E-01
      -2    -1     0     0     0   501  0.000000000E+00  0.000000000E+00  1.424079807E+00  1.424079807E+00  0.000000000E+00  0.00000E+00  9.000E+00
       2    -1     0     0   501     0  0.000000000E+00  0.000000000E+00 -1.074166300E+03  1.074166300E+03  0.000000000E+00  0.00000E+00  9.000E+00
      23     2     1     2     0     0  0.000000000E+00  0.000000000E+00 -1.072742221E+03  1.075590380E+03  7.822272146E+01  0.00000E+00  9.000E+00
      11     1     3     3     0     0  1.238052509E+01 -7.435821743E+00 -1.036160135E+03  1.036260775E+03  5.109989100E-04  0.00000E+00  9.000E+00
     -11     1     3     3     0     0 -1.238052509E+01  7.435821743E+00 -3.658208609E+01  3.932960551E+01  5.109989100E-04  0.00000E+00  9.000E+00
#rwgt            1           4   333.03124560034649         54217137       47699           0
#pdf  -2  2 0.35601995E-03 0.26854158E+00 0.78222721E+02 0.22016416E+01 0.42221528E+00
</event>
<event>
      5  10011  2.10784E+03  1.00000E+01 -1.00000E+00  1.50799E-01
      -2    -1     0     0     0   501  0.000000000E+00  0.000000000E+00  7.146553057E-01  7.146553057E-01  0.000000000E+00  0.00000E+00  9.000E+00
       2    -1     0     0   501     0  0.000000000E+00  0.000000000E+00 -1.665785653E+02  1.665785653E+02  0.000000000E+00  0.00000E+00  9.000E+00
      23     2     1     2     0     0  0.000000000E+00  0.000000000E+00 -1.658639100E+02  1.672932206E+02  2.182166405E+01  0.00000E+00  9.000E+00
      11     1     3     3     0     0 -8.209351913E+00 -2.667289362E+00 -3.176876601E+01  3.292054656E+01  5.109989100E-04  0.00000E+00  9.000E+00
     -11     1     3     3     0     0  8.209351913E+00  2.667289362E+00 -1.340951440E+02  1.343726741E+02  5.109989100E-04  0.00000E+00  9.000E+00
#rwgt            1           4   33109.995063452458         54217137       47744           0
#pdf  -2  2 0.17866383E-03 0.41644641E-01 0.21821664E+02 0.19868754E+01 0.66603420E+00
</event>
<event>
      6  10011  2.10784E+03  1.36129E+01 -1.00000E+00  1.81442E-01
       2    -1     0     0   501     0  0.000000000E+00  0.000000000E+00  1.673613544E+02  1.673613544E+02  0.000000000E+00  0.00000E+00  9.000E+00
      21    -1     0     0   511   501  0.000000000E+00  0.000000000E+00 -6.297692536E+00  6.297692536E+00  0.000000000E+00  0.00000E+00  9.000E+00
      23     2     1     2     0     0  8.887878015E+00 -1.031102126E+01  1.518168531E+02  1.572025890E+02  3.845758152E+01  0.00000E+00  9.000E+00
      11     1     3     3     0     0 -3.651442113E+00  5.418352764E-01 -7.249858269E-01  3.761943605E+00  5.109989100E-04  0.00000E+00  9.000E+00
     -11     1     3     3     0     0  1.253932013E+01 -1.085285654E+01  1.525418389E+02  1.534406454E+02  5.109989100E-04  0.00000E+00  9.000E+00
       2     1     1     2   511     0 -8.887878015E+00  1.031102126E+01  9.246808802E+00  1.645645795E+01  0.000000000E+00  0.00000E+00  9.000E+00
#rwgt            1           7   4959.4468659594304         54217137       47800           0
#pdf   2 -2 0.36413494E-01 0.63463148E-03 0.38457582E+02 0.67554728E+00 0.15436444E+01
</event>
<event>
      5  10011  2.10784E+03  1.00000E+01 -1.00000E+00  1.88938E-01
       1    -1     0     0   501     0  0.000000000E+00  0.000000000E+00  3.677538562E+01  3.677538562E+01  0.000000000E+00  0.00000E+00  9.000E+00
      -1    -1     0     0     0   501  0.000000000E+00  0.000000000E+00 -5.486928704E+01  5.486928704E+01  0.000000000E+00  0.00000E+00  9.000E+00
      23     2     1     2     0     0  0.000000000E+00  0.000000000E+00 -1.809390142E+01  9.164467266E+01  8.984072995E+01  0.00000E+00  9.000E+00
      11     1     3     3     0     0 -2.421613664E+01 -5.967968640E+00 -4.715754722E+01  5.334671670E+01  5.109989100E-04  0.00000E+00  9.000E+00
     -11     1     3     3     0     0  2.421613664E+01  5.967968640E+00  2.906364580E+01  3.829795596E+01  5.109989100E-04  0.00000E+00  9.000E+00
#rwgt            1           6   910.92028999616252         54217137       47889           0
#pdf   1 -1 0.91938464E-02 0.13717322E-01 0.89840730E+02 0.69001668E+00 0.45162634E+00
</event>
<event>
      5  10011  2.10784E+03  1.00000E+01 -1.00000E+00  1.92094E-01
      -3    -1     0     0     0   501  0.000000000E+00  0.000000000E+00  8.596883948E+01  8.596883948E+01  0.000000000E+00  0.00000E+00  9.000E+00
       3    -1     0     0   501     0  0.000000000E+00  0.000000000E+00 -2.528250757E+01  2.528250757E+01  0.000000000E+00  0.00000E+00  9.000E+00
      23     2     1     2     0     0  0.000000000E+00  0.000000000E+00  6.068633191E+01  1.112513471E+02  9.324178967E+01  0.00000E+00  9.000E+00
      11     1     3     3     0     0  2.138058436E+00  1.411944556E+01 -2.260869742E+01  2.674104030E+01  5.109989100E-04  0.00000E+00  9.000E+00
     -11     1     3     3     0     0 -2.138058436E+00 -1.411944556E+01  8.329502934E+01  8.451030676E+01  5.109989100E-04  0.00000E+00  9.000E+00
#rwgt            1           3   326.11111821811272         54217137       47969           0
#pdf  -3  3 0.21492210E-01 0.63206269E-02 0.93241790E+02 0.29540111E+00 0.61955878E+00
</event>
<event>
      6  10011  2.10784E+03  3.40540E+01 -1.00000E+00  1.49308E-01
      -1    -1     0     0     0   501  0.000000000E+00  0.000000000E+00  1.459190552E+03  1.459190552E+03  0.000000000E+00  0.00000E+00  9.000E+00
       1    -1     0     0   511     0  0.000000000E+00  0.000000000E+00 -8.548825230E+00  8.548825230E+00  0.000000000E+00  0.00000E+00  9.000E+00
      23     2     1     2     0     0  9.951767309E+00  3.256738855E+01  1.415308199E+03  1.418666670E+03  9.142290532E+01  0.00000E+00  9.000E+00
      11     1     3     3     0     0  4.510900610E+01  4.225241908E+00  4.431026224E+02  4.454128524E+02  5.109989100E-04  0.00000E+00  9.000E+00
     -11     1     3     3     0     0 -3.515723879E+01  2.834214664E+01  9.722055770E+02  9.732538172E+02  5.109989100E-04  0.00000E+00  9.000E+00
      21     1     1     2   511   501 -9.951767309E+00 -3.256738855E+01  3.533352700E+01  4.907270728E+01  2.861022949E-06  0.00000E+00  9.000E+00
#rwgt            1           5   66.978362677654459         54217137       48151           0
#pdf  -1  1 0.33196499E+00 0.39340310E-03 0.91422905E+02 0.65056430E-02 0.22045373E+01
</event>
<event>
      6  10011  2.10784E+03  1.55372E+01 -1.00000E+00  1.75950E-01
      21    -1     0     0   501   511  0.000000000E+00  0.000000000E+00  1.135023183E+01  1.135023183E+01  0.000000000E+00  0.00000E+00  9.000E+00
      -4    -1     0     0     0   501  0.000000000E+00  0.000000000E+00 -4.283218954E+02  4.283218954E+02  0.000000000E+00  0.00000E+00  9.000E+00
      23     2     1     2     0     0  1.535912224E+01 -2.345812238E+00 -4.143107472E+02  4.239086902E+02  8.833898869E+01  0.00000E+00  9.000E+00
      11     1     3     3     0     0  4.687376485E+01 -1.329730414E+01 -3.237884434E+02  3.274338471E+02  5.109989100E-04  0.00000E+00  9.000E+00
     -11     1     3     3     0     0 -3.151464261E+01  1.095149190E+01 -9.052230377E+01  9.647484311E+01  5.109989100E-04  0.00000E+00  9.000E+00
      -4     1     1     2     0   511 -1.535912224E+01  2.345812238E+00 -2.660916380E+00  1.576343703E+01  0.000000000E+00  0.00000E+00  9.000E+00
#rwgt            1           9   44.447049799401562         54217137       48194           0
#pdf   4 -4 0.11816059E-02 0.10319347E+00 0.88338989E+02 0.11215783E+01 0.24174464E-01
</event>
<event>
      6  10011  2.10784E+03  1.90795E+01 -1.00000E+00  1.68070E-01
       2    -1     0     0   501     0  0.000000000E+00  0.000000000E+00  1.407514887E+02  1.407514887E+02  0.000000000E+00  0.00000E+00  9.000E+00
      -2    -1     0     0     0   511  0.000000000E+00  0.000000000E+00 -2.702942884E+01  2.702942884E+01  0.000000000E+00  0.00000E+00  9.000E+00
      23     2     1     2     0     0 -5.600013446E+00 -1.823914991E+01  1.150491961E+02  1.486553317E+02  9.218494120E+01  0.00000E+00  9.000E+00
      11     1     3     3     0     0  3.622829607E+01 -9.138120954E+00  9.358649958E+01  1.007691798E+02  5.109989100E-04  0.00000E+00  9.000E+00
     -11     1     3     3     0     0 -4.182830952E+01 -9.101028961E+00  2.146269655E+01  4.788615195E+01  5.109989100E-04  0.00000E+00  9.000E+00
      21     1     1     2   501   511  5.600013446E+00  1.823914991E+01 -1.327136304E+00  1.912558577E+01  4.334163538E-07  0.00000E+00  9.000E+00
#rwgt            1           7   603.43989920726256         54217137       48358           0
#pdf   2 -2 0.32278958E-01 0.41135851E-02 0.92184941E+02 0.69093634E+00 0.85896974E+00
</event>
<event>
      6  10011  2.10784E+03  1.29170E+01 -1.00000E+00  1.83721E-01
      -1    -1     0     0     0   511  0.000000000E+00  0.000000000E+00  1.684416200E+01  1.684416200E+01  0.000000000E+00  0.00000E+00  9.000E+00
       1    -1     0     0   501     0  0.000000000E+00  0.000000000E+00 -1.586714123E+02  1.586714123E+02  0.000000000E+00  0.00000E+00  9.000E+00
      23     2     1     2     0     0  4.495030532E+00 -1.210965003E+01 -1.314341489E+02  1.589365068E+02  8.842527218E+01  0.00000E+00  9.000E+00
      11     1     3     3     0     0 -1.376017237E+01  4.302006631E+00 -1.335238448E+02  1.342999134E+02  5.109989100E-04  0.00000E+00  9.000E+00
     -11     1     3     3     0     0  1.825520291E+01 -1.641165666E+01  2.089695826E+00  2.463659344E+01  5.109989100E-04  0.00000E+00  9.000E+00
      21     1     1     2   501   511 -4.495030532E+00  1.210965003E+01 -1.039310132E+01  1.657906748E+01  1.685873940E-07  0.00000E+00  9.000E+00
#rwgt            1           5   3827.1690661032749         54217137       48403           0
#pdf  -1  1 0.34016922E-02 0.35915161E-01 0.88425272E+02 0.91296144E+00 0.46427525E+00
</event>
<event>
      6  10011  2.10784E+03  2.71068E+01 -1.00000E+00  1.56159E-01
      21    -1     0     0   511   501  0.000000000E+00  0.000000000E+00  2.770282167E+01  2.770282167E+01  0.000000000E+00  0.00000E+00  9.000E+00
       2    -1     0     0   501     0  0.000000000E+00  0.000000000E+00 -7.837451710E+02  7.837451710E+02  0.000000000E+00  0.00000E+00  9.000E+00
      23     2     1     2     0     0 -1.088261423E+01 -2.482632741E+01 -7.733962913E+02  7.792620155E+02  9.150239091E+01  0.00000E+00  9.000E+00
      11     1     3     3     0     0  2.228331939E+01 -4.921503811E+01 -4.660583974E+02  4.691791727E+02  5.109989100E-04  0.00000E+00  9.000E+00
     -11     1     3     3     0     0 -3.316593363E+01  2.438871070E+01 -3.073378940E+02  3.100828428E+02  5.109989100E-04  0.00000E+00  9.000E+00
       2     1     1     2   511     0  1.088261423E+01  2.482632741E+01  1.735394198E+01  3.218597719E+01  0.000000000E+00  0.00000E+00  9.000E+00
#rwgt            1           4   4603.5983275432072         54217137       48440           0
#pdf  -2  2 0.70301619E-03 0.18608852E+00 0.91502391E+02 0.17625905E+01 0.53126121E+00
</event>
<event>
      6  10011  2.10784E+03  2.54275E+01 -1.00000E+00  1.58197E-01
       2    -1     0     0   501     0  0.000000000E+00  0.000000000E+00  3.591573704E+02  3.591573704E+02  0.000000000E+00  0.00000E+00  9.000E+00
      -2    -1     0     0     0   511  0.000000000E+00  0.000000000E+00 -1.480775586E+01  1.480775586E+01  0.000000000E+00  0.00000E+00  9.000E+00
      23     2     1     2     0     0 -1.649883940E+01 -1.934800409E+01  3.317791538E+02  3.456001223E+02  9.335673894E+01  0.00000E+00  9.000E+00
      11     1     3     3     0     0 -1.733866233E+01  3.626562637E+01  1.634298437E+02  1.683007388E+02  5.109989100E-04  0.00000E+00  9.000E+00
     -11     1     3     3     0     0  8.398229253E-01 -5.561363047E+01  1.683493101E+02  1.772993835E+02  5.109989100E-04  0.00000E+00  9.000E+00
      21     1     1     2   501   511  1.649883940E+01  1.934800409E+01  1.257046075E+01  2.836500392E+01  2.920019320E-07  0.00000E+00  9.000E+00
#rwgt            1           7   2408.5607705082853         54217137       48465           0
#pdf   2 -2 0.81696302E-01 0.16668978E-02 0.93356739E+02 0.64229732E+00 0.12592946E+01
</event>
<event>
      6  10011  2.10784E+03  2.88450E+01 -1.00000E+00  1.54229E-01
       1    -1     0     0   501     0  0.000000000E+00  0.000000000E+00  2.548976672E+02  2.548976672E+02  0.000000000E+00  0.00000E+00  9.000E+00
      21    -1     0     0   511   501  0.000000000E+00  0.000000000E+00 -1.560249382E+01  1.560249382E+01  0.000000000E+00  0.00000E+00  9.000E+00
      23     2     1     2     0     0 -8.988622745E+00  2.740878508E+01  1.943358383E+02  2.170831352E+02  9.233976766E+01  0.00000E+00  9.000E+00
      11     1     3     3     0     0 -5.031154966E+01  2.037711584E+01  1.208950758E+02  1.325220670E+02  5.109989100E-04  0.00000E+00  9.000E+00
     -11     1     3     3     0     0  4.132292691E+01  7.031669244E+00  7.344076253E+01  8.456106824E+01  5.109989100E-04  0.00000E+00  9.000E+00
       1     1     1     2   511     0  8.988622745E+00 -2.740878508E+01  4.495933503E+01  5.341702580E+01  0.000000000E+00  0.00000E+00  9.000E+00
#rwgt            1           6   358.61694206200724         54217137       48570           0
#pdf   1 -1 0.49088081E-01 0.27140730E-02 0.92339768E+02 0.43100008E+00 0.10138976E+01
</event>
<event>
      6  10011  2.10784E+03  1.70801E+01 -1.00000E+00  1.72225E-01
       2    -1     0     0   501     0  0.000000000E+00  0.000000000E+00  6.897461822E+02  6.897461822E+02  0.000000000E+00  0.00000E+00  9.000E+00
      21    -1     0     0   511   501  0.000000000E+00  0.000000000E+00 -4.760228409E+00  4.760228409E+00  0.000000000E+00  0.00000E+00  9.000E+00
      23     2     1     2     0     0 -8.913366288E+00  1.456994430E+01  4.720582480E+02  4.808947553E+02  9.016121576E+01  0.00000E+00  9.000E+00
      11     1     3     3     0     0 -2.614800330E+01 -2.478601175E+01  9.865661486E+01  1.050294821E+02  5.109989100E-04  0.00000E+00  9.000E+00
     -11     1     3     3     0     0  1.723463701E+01  3.935595605E+01  3.734016331E+02  3.758652732E+02  5.109989100E-04  0.00000E+00  9.000E+00
       2     1     1     2   511     0  8.913366288E+00 -1.456994430E+01  2.129277058E+02  2.136116553E+02  0.000000000E+00  0.00000E+00  9.000E+00
#rwgt            1           7   3671.0140613204740         54217137       48653           0
#pdf   2 -2 0.11703754E+00 0.10852614E-02 0.90161216E+02 0.61050684E+00 0.14866643E+01
</event>
<event>
      5  10011 -2.10784E+03  1.00000E+01 -1.00000E+00  1.80857E-01
      -4    -1     0     0     0   501  0.000000000E+00  0.000000000E+00  9.338130355E+00  9.338130355E+00  0.000000000E+00  0.00000E+00  9.000E+00
       4    -1     0     0   501     0  0.000000000E+00  0.000000000E+00 -2.419679919E+01  2.419679919E+01  0.000000000E+00  0.00000E+00  9.000E+00
      23     2     1     2     0     0  0.000000000E+00  0.000000000E+00 -1.485866883E+01  3.353492954E+01  3.006345722E+01  0.00000E+00  9.000E+00
      11     1     3     3     0     0 -1.112452024E+01 -1.641822224E-02  3.847284908E+00  1.177101616E+01  5.109989100E-04  0.00000E+00  9.000E+00
     -11     1     3     3     0     0  1.112452024E+01  1.641822224E-02 -1.870595374E+01  2.176391338E+01  5.109989100E-04  0.00000E+00  9.000E+00
#rwgt            1           2  -44280.955200913653         54217137       48686           0
#pdf  -4  4 0.23345326E-02 0.60491998E-02 0.30063457E+02 0.64030952E+00 0.39901872E+00
</event>
<event>
      5  10011  2.10784E+03  1.00000E+01 -1.00000E+00  1.83613E-01
       2    -1     0     0   501     0  0.000000000E+00  0.000000000E+00  2.234770854E+02  2.234770854E+02  0.000000000E+00  0.00000E+00  9.000E+00
      -2    -1     0     0     0   501  0.000000000E+00  0.000000000E+00 -9.537448888E+00  9.537448888E+00  0.000000000E+00  0.00000E+00  9.000E+00
      23     2     1     2     0     0  0.000000000E+00  0.000000000E+00  2.139396365E+02  2.330145343E+02  9.233420341E+01  0.00000E+00  9.000E+00
      11     1     3     3     0     0  1.151840764E+01 -3.805132273E+01  1.661978078E+02  1.708867701E+02  5.109989100E-04  0.00000E+00  9.000E+00
     -11     1     3     3     0     0 -1.151840764E+01  3.805132273E+01  4.774182878E+01  6.212776426E+01  5.109989100E-04  0.00000E+00  9.000E+00
#rwgt            1           7   2486.0016401128119         54217137       48723           0
#pdf   2 -2 0.55869271E-01 0.23843622E-02 0.92334203E+02 0.66415149E+00 0.10851262E+01
</event>
<event>
      5  10011  2.10784E+03  1.00000E+01 -1.00000E+00  1.91596E-01
      -2    -1     0     0     0   501  0.000000000E+00  0.000000000E+00  2.871843480E+01  2.871843480E+01  0.000000000E+00  0.00000E+00  9.000E+00
       2    -1     0     0   501     0  0.000000000E+00  0.000000000E+00 -1.178099571E+01  1.178099571E+01  0.000000000E+00  0.00000E+00  9.000E+00
      23     2     1     2     0     0  0.000000000E+00  0.000000000E+00  1.693743909E+01  4.049943051E+01  3.678759341E+01  0.00000E+00  9.000E+00
      11     1     3     3     0     0 -8.521279822E+00  4.148081047E+00 -8.886178593E+00  1.299164949E+01  5.109989100E-04  0.00000E+00  9.000E+00
     -11     1     3     3     0     0  8.521279822E+00 -4.148081047E+00  2.582361768E+01  2.750778102E+01  5.109989100E-04  0.00000E+00  9.000E+00
#rwgt            1           4   546.41330987200013         54217137       48804           0
#pdf  -2  2 0.71796087E-02 0.29452489E-02 0.36787593E+02 0.61055730E+00 0.99518404E+00
</event>
<event>
      6  10011  2.10784E+03  1.89079E+01 -1.00000E+00  1.68401E-01
      21    -1     0     0   511   501  0.000000000E+00  0.000000000E+00  1.249258646E+02  1.249258646E+02  0.000000000E+00  0.00000E+00  9.000E+00
       2    -1     0     0   501     0  0.000000000E+00  0.000000000E+00 -6.236165272E+01  6.236165272E+01  0.000000000E+00  0.00000E+00  9.000E+00
      23     2     1     2     0     0 -6.607628235E-01 -1.889638763E+01 -2.462153163E+01  9.807505214E+01  9.303217701E+01  0.00000E+00  9.000E+00
      11     1     3     3     0     0  2.703790930E+01 -4.278687708E+01 -3.316555326E+01  6.051214186E+01  5.109989100E-04  0.00000E+00  9.000E+00
     -11     1     3     3     0     0 -2.769867212E+01  2.389048944E+01  8.544021630E+00  3.756291028E+01  5.109989100E-04  0.00000E+00  9.000E+00
       2     1     1     2   511     0  6.607628235E-01  1.889638763E+01  8.718574352E+01  8.921246519E+01  0.000000000E+00  0.00000E+00  9.000E+00
#rwgt            1           4   3418.6695235603111         54217137       48895           0
#pdf  -2  2 0.89977365E-02 0.15029797E-01 0.93032177E+02 0.59947483E+00 0.75373666E+00
</event>
<event>
      6  10011  2.10784E+03  1.12679E+01 -1.00000E+00  1.89942E-01
      -1    -1     0     0     0   511  0.000000000E+00  0.000000000E+00  1.555676713E+00  1.555676713E+00  0.000000000E+00  0.00000E+00  9.000E+00
       1    -1     0     0   501     0  0.000000000E+00  0.000000000E+00 -3.570572659E+02  3.570572659E+02  0.000000000E+00  0.00000E+00  9.000E+00
      23     2     1     2     0     0 -1.080095463E+01  3.210011162E+00 -2.992619277E+02  3.012556038E+02  3.271502181E+01  0.00000E+00  9.000E+00
      11     1     3     3     0     0 -2.391984687E+00  1.501592905E+01 -2.295355583E+02  2.300386320E+02  5.109989100E-04  0.00000E+00  9.000E+00
     -11     1     3     3     0     0 -8.408969944E+00 -1.180591788E+01 -6.972636940E+01  7.121697174E+01  5.109989100E-04  0.00000E+00  9.000E+00
      21     1     1     2   501   511  1.080095463E+01 -3.210011162E+00 -5.623966149E+01  5.735733882E+01  6.743495762E-07  0.00000E+00  9.000E+00
#rwgt            1           5   4481.5847009303297         54217137       48986           0
#pdf  -1  1 0.23562517E-03 0.70972936E-01 0.32715022E+02 0.20566821E+01 0.40138246E+00
</event>
<event>
      5  10011  2.10784E+03  1.00000E+01 -1.00000E+00  1.93017E-01
      -4    -1     0     0     0   501  0.000000000E+00  0.000000000E+00  4.612037713E+00  4.612037713E+00  0.000000000E+00  0.00000E+00  9.000E+00
       4    -1     0     0   501     0  0.000000000E+00  0.000000000E+00 -3.775633568E+01  3.775633568E+01  0.000000000E+00  0.00000E+00  9.000E+00
      23     2     1     2     0     0  0.000000000E+00  0.000000000E+00 -3.314429797E+01  4.236837339E+01  2.639194150E+01  0.00000E+00  9.000E+00
      11     1     3     3     0     0 -3.841711623E-01 -1.081396475E+01 -2.869699647E+01  3.066931736E+01  5.109989100E-04  0.00000E+00  9.000E+00
     -11     1     3     3     0     0  3.841711623E-01  1.081396475E+01 -4.447301498E+00  1.169905603E+01  5.109989100E-04  0.00000E+00  9.000E+00
#rwgt            1           2   7101.6155743765648         54217137       49065           0
#pdf  -4  4 0.11530094E-02 0.94390839E-02 0.26391942E+02 0.83578918E+00 0.30030672E+00
</event>
<event>
      5  10011  2.10784E+03  1.00000E+01 -1.00000E+00  1.63901E-01
      -2    -1     0     0     0   501  0.000000000E+00  0.000000000E+00  1.781247743E-01  1.781247743E-01  0.000000000E+00  0.00000E+00  9.000E+00
       2    -1     0     0   501     0  0.000000000E+00  0.000000000E+00 -7.870430083E+02  7.870430083E+02  0.000000000E+00  0.00000E+00  9.000E+00
      23     2     1     2     0     0  0.000000000E+00  0.000000000E+00 -7.868648836E+02  7.872211331E+02  2.368052856E+01  0.00000E+00  9.000E+00
      11     1     3     3     0     0  4.458326714E+00  5.222872515E+00 -7.140835139E+02  7.141165310E+02  5.109989100E-04  0.00000E+00  9.000E+00
     -11     1     3     3     0     0 -4.458326714E+00 -5.222872515E+00 -7.278136967E+01  7.310460209E+01  5.109989100E-04  0.00000E+00  9.000E+00
#rwgt            1           4   96997.946822755970         54217137       49106           0
#pdf  -2  2 0.44531194E-04 0.19676075E+00 0.23680529E+02 0.30444351E+01 0.56974699E+00
</event>
<event>
      6  10011  2.10784E+03  1.21762E+01 -1.00000E+00  1.86359E-01
       1    -1     0     0   501     0  0.000000000E+00  0.000000000E+00  6.313920691E+01  6.313920691E+01  0.000000000E+00  0.00000E+00  9.000E+00
      -1    -1     0     0     0   511  0.000000000E+00  0.000000000E+00 -6.401731338E+01  6.401731338E+01  0.000000000E+00  0.00000E+00  9.000E+00
      23     2     1     2     0     0 -4.125638517E+00  1.145593604E+01  5.418784159E+00  1.134484863E+02  1.126629329E+02  0.00000E+00  9.000E+00
      11     1     3     3     0     0  8.807115944E+00 -1.778488117E+01  5.273307789E+01  5.634398631E+01  5.109989100E-04  0.00000E+00  9.000E+00
     -11     1     3     3     0     0 -1.293275446E+01  2.924081721E+01 -4.731429373E+01  5.710450000E+01  5.109989100E-04  0.00000E+00  9.000E+00
      21     1     1     2   501   511  4.125638517E+00 -1.145593604E+01 -6.296890631E+00  1.370803397E+01  1.460009660E-07  0.00000E+00  9.000E+00
#rwgt            1           6   1936.8846482361482         54217137       49193           0
#pdf   1 -1 0.14772385E-01 0.13425532E-01 0.11266293E+03 0.59765150E+00 0.46305427E+00
</event>
<event>
      5  10011  2.10784E+03  1.00000E+01 -1.00000E+00  1.70438E-01
      -2    -1     0     0     0   501  0.000000000E+00  0.000000000E+00  8.431762121E-01  8.431762121E-01  0.000000000E+00  0.00000E+00  9.000E+00
       2    -1     0     0   501     0  0.000000000E+00  0.000000000E+00 -1.330504717E+02  1.330504717E+02  0.000000000E+00  0.00000E+00  9.000E+00
      23     2     1     2     0     0  0.000000000E+00  0.000000000E+00 -1.322072955E+02  1.338936480E+02  2.118348345E+01  0.00000E+00  9.000E+00
      11     1     3     3     0     0  3.501536380E+00 -8.657392509E+00 -9.769038939E+01  9.813573957E+01  5.109989100E-04  0.00000E+00  9.000E+00
     -11     1     3     3     0     0 -3.501536380E+00  8.657392509E+00 -3.451690614E+01  3.575790838E+01  5.109989100E-04  0.00000E+00  9.000E+00
#rwgt            1           4   28682.736043541332         54217137       49282           0
#pdf  -2  2 0.21079405E-03 0.33262618E-01 0.21183483E+02 0.18738979E+01 0.66663229E+00
</event>
<event>
      6  10011  2.10784E+03  4.19705E+01 -1.00000E+00  1.43553E-01
      -2    -1     0     0     0   501  0.000000000E+00  0.000000000E+00  1.772391584E+02  1.772391584E+02  0.000000000E+00  0.00000E+00  9.000E+00
      21    -1     0     0   501   511  0.000000000E+00  0.000000000E+00 -2.243282475E+01  2.243282475E+01  0.000000000E+00  0.00000E+00  9.000E+00
      23     2     1     2     0     0  3.437721804E+01 -2.407762295E+01  1.399939150E+02  1.551643120E+02  5.211662324E+01  0.00000E+00  9.000E+00
      11     1     3     3     0     0  4.532683217E+01 -8.114698311E+00  1.123167782E+02  1.213895742E+02  5.109989100E-04  0.00000E+00  9.000E+00
     -11     1     3     3     0     0 -1.094961413E+01 -1.596292464E+01  2.767713681E+01  3.377473782E+01  5.109989100E-04  0.00000E+00  9.000E+00
      -2     1     1     2     0   511 -3.437721804E+01  2.407762295E+01  1.481241859E+01  4.450767116E+01  0.000000000E+00  0.00000E+00  9.000E+00
#rwgt            1           4   55.307596672267948         54217137       49309           0
#pdf  -2  2 0.28735268E-01 0.14769211E-02 0.52116623E+02 0.31437676E+00 0.12902352E+01
</event>
<event>
      5  10011  2.10784E+03  1.00000E+01 -1.00000E+00  1.92525E-01
       2    -1     0     0   501     0  0.000000000E+00  0.000000000E+00  4.445736721E+02  4.445736721E+02  0.000000000E+00  0.00000E+00  9.000E+00
      -2    -1     0     0     0   501  0.000000000E+00  0.000000000E+00 -4.331966769E-01  4.331966769E-01  0.000000000E+00  0.00000E+00  9.000E+00
      23     2     1     2     0     0  0.000000000E+00  0.000000000E+00  4.441404754E+02  4.450068688E+02  2.775520401E+01  0.00000E+00  9.000E+00
      11     1     3     3     0     0  6.293489122E+00  1.170271379E+01  2.862560764E+02  2.865643083E+02  5.109989100E-04  0.00000E+00  9.000E+00
     -11     1     3     3     0     0 -6.293489122E+00 -1.170271379E+01  1.578843991E+02  1.584425605E+02  5.109989100E-04  0.00000E+00  9.000E+00
#rwgt            1           7   25890.758769784694         54217137       49334           0
#pdf   2 -2 0.11114342E+00 0.10829917E-03 0.27755204E+02 0.64110634E+00 0.24910570E+01
</event>
<event>
      5  10011  2.10784E+03  1.00000E+01 -1.00000E+00  1.49952E-01
       1    -1     0     0   501     0  0.000000000E+00  0.000000000E+00  6.296158999E+02  6.296158999E+02  0.000000000E+00  0.00000E+00  9.000E+00
      -1    -1     0     0     0   501  0.000000000E+00  0.000000000E+00 -1.922434696E-01  1.922434696E-01  0.000000000E+00  0.00000E+00  9.000E+00
      23     2     1     2     0     0  0.000000000E+00  0.000000000E+00  6.294236565E+02  6.298081434E+02  2.200359472E+01  0.00000E+00  9.000E+00
      11     1     3     3     0     0 -6.640426826E+00 -4.665518981E+00  1.020965352E+02  1.024185766E+02  5.109989100E-04  0.00000E+00  9.000E+00
     -11     1     3     3     0     0  6.640426826E+00  4.665518981E+00  5.273271213E+02  5.273895668E+02  5.109989100E-04  0.00000E+00  9.000E+00
#rwgt            1           6   8045.9349726740365         54217137       49405           0
#pdf   1 -1 0.15740397E+00 0.48060867E-04 0.22003595E+02 0.31298454E+00 0.28985413E+01
</event>
<event>
      5  10011  2.10784E+03  1.00000E+01 -1.00000E+00  1.93598E-01
       1    -1     0     0   501     0  0.000000000E+00  0.000000000E+00  8.562500138E+02  8.562500138E+02  0.000000000E+00  0.00000E+00  9.000E+00
      -1    -1     0     0     0   501  0.000000000E+00  0.000000000E+00 -1.291418128E-01  1.291418128E-01  0.000000000E+00  0.00000E+00  9.000E+00
      23     2     1     2     0     0  0.000000000E+00  0.000000000E+00  8.561208720E+02  8.563791557E+02  2.103118437E+01  0.00000E+00  9.000E+00
      11     1     3     3     0     0  5.946464384E+00  2.758459319E+00  9.324778578E+01  9.347790696E+01  5.109989100E-04  0.00000E+00  9.000E+00
     -11     1     3     3     0     0 -5.946464384E+00 -2.758459319E+00  7.628730863E+02  7.629012487E+02  5.109989100E-04  0.00000E+00  9.000E+00
#rwgt            1           6   3493.2102510401241         54217137       49452           0
#pdf   1 -1 0.21406250E+00 0.32285453E-04 0.21031184E+02 0.25225168E+00 0.31738666E+01
</event>
<event>
      5  10011  2.10784E+03  1.00000E+01 -1.00000E+00  1.90615E-01
      -1    -1     0     0     0   501  0.000000000E+00  0.000000000E+00  2.108192750E+01  2.108192750E+01  0.000000000E+00  0.00000E+00  9.000E+00
       1    -1     0     0   501     0  0.000000000E+00  0.000000000E+00 -8.746648082E+00  8.746648082E+00  0.000000000E+00  0.00000E+00  9.000E+00
      23     2     1     2     0     0  0.000000000E+00  0.000000000E+00  1.233527942E+01  2.982857558E+01  2.715851253E+01  0.00000E+00  9.000E+00
      11     1     3     3     0     0 -7.193345527E-01  7.945897631E-01 -8.700116394E+00  8.765890749E+00  5.109989100E-04  0.00000E+00  9.000E+00
     -11     1     3     3     0     0  7.193345527E-01 -7.945897631E-01  2.103539581E+01  2.106268483E+01  5.109989100E-04  0.00000E+00  9.000E+00
#rwgt            1           5   2256.9939802964627         54217137       49557           0
#pdf  -1  1 0.52704819E-02 0.21866620E-02 0.27158513E+02 0.64829865E+00 0.96638133E+00
</event>
<event>
      5  10011 -2.10784E+03  1.00000E+01 -1.00000E+00  1.87096E-01
      -4    -1     0     0     0   501  0.000000000E+00  0.000000000E+00  2.171628635E+00  2.171628635E+00  0.000000000E+00  0.00000E+00  9.000E+00
       4    -1     0     0   501     0  0.000000000E+00  0.000000000E+00 -7.673925572E+01  7.673925572E+01  0.000000000E+00  0.00000E+00  9.000E+00
      23     2     1     2     0     0  0.000000000E+00  0.000000000E+00 -7.456762709E+01  7.891088436E+01  2.581853328E+01  0.00000E+00  9.000E+00
      11     1     3     3     0     0  9.001323524E+00  6.000332787E+00 -5.881359466E+01  5.980022354E+01  5.109989100E-04  0.00000E+00  9.000E+00
     -11     1     3     3     0     0 -9.001323524E+00 -6.000332787E+00 -1.575403243E+01  1.911066081E+01  5.109989100E-04  0.00000E+00  9.000E+00
#rwgt            1           2  -79707.800255051814         54217137       49927           0
#pdf  -4  4 0.54290716E-03 0.19184814E-01 0.25818533E+02 0.11138923E+01 0.18434004E+00
</event>
<event>
      6  10011  2.10784E+03  4.06235E+01 -1.00000E+00  1.44421E-01
      21    -1     0     0   501   511  0.000000000E+00  0.000000000E+00  2.161089479E+01  2.161089479E+01  0.000000000E+00  0.00000E+00  9.000E+00
      -2    -1     0     0     0   501  0.000000000E+00  0.000000000E+00 -2.251486701E+02  2.251486701E+02  0.000000000E+00  0.00000E+00  9.000E+00
      23     2     1     2     0     0  4.050009909E+01 -3.163633237E+00 -1.479866308E+02  1.779395368E+02  9.006758175E+01  0.00000E+00  9.000E+00
      11     1     3     3     0     0  5.423623713E+01 -3.016089012E+01 -6.627638980E+01  9.079542145E+01  5.109989100E-04  0.00000E+00  9.000E+00
     -11     1     3     3     0     0 -1.373613804E+01  2.699725688E+01 -8.171024097E+01  8.714411539E+01  5.109989100E-04  0.00000E+00  9.000E+00
      -2     1     1     2     0   511 -4.050009909E+01  3.163633237E+00 -5.555114456E+01  6.882002807E+01  0.000000000E+00  0.00000E+00  9.000E+00
#rwgt            1           7   651.53600985910236         54217137       50051           0
#pdf   2 -2 0.34130165E-02 0.37138012E-01 0.90067582E+02 0.10690570E+01 0.26909393E+00
</event>
<event>
      6  10011  2.10784E+03  1.92295E+01 -1.00000E+00  1.67784E-01
       1    -1     0     0   511     0  0.000000000E+00  0.000000000E+00  5.630524835E+01  5.630524835E+01  0.000000000E+00  0.00000E+00  9.000E+00
      -1    -1     0     0     0   501  0.000000000E+00  0.000000000E+00 -5.792646152E+01  5.792646152E+01  0.000000000E+00  0.00000E+00  9.000E+00
      23     2     1     2     0     0 -1.799861853E+01  6.769411926E+00 -3.035050098E+00  9.495026435E+01  9.293312630E+01  0.00000E+00  9.000E+00
      11     1     3     3     0     0 -4.734123910E+01  2.872191118E+01  9.577455633E+00  5.619491755E+01  5.109989100E-04  0.00000E+00  9.000E+00
     -11     1     3     3     0     0  2.934262057E+01 -2.195249926E+01 -1.261250573E+01  3.875534681E+01  5.109989100E-04  0.00000E+00  9.000E+00
      21     1     1     2   511   501  1.799861853E+01 -6.769411926E+00  1.413836929E+00  1.928144553E+01  4.050814277E-07  0.00000E+00  9.000E+00
#rwgt            1           6   351.55073834422819         54217137       50158           0
#pdf   1 -1 0.11251068E-01 0.11994091E-01 0.92933126E+02 0.64570155E+00 0.48887046E+00
</event>
<event>
      5  10011  2.10784E+03  1.00000E+01 -1.00000E+00  1.95405E-01
       2    -1     0     0   501     0  0.000000000E+00  0.000000000E+00  1.237105175E+03  1.237105175E+03  0.000000000E+00  0.00000E+00  9.000E+00
      -2    -1     0     0     0   501  0.000000000E+00  0.000000000E+00 -1.697899658E+00  1.697899658E+00  0.000000000E+00  0.00000E+00  9.000E+00
      23     2     1     2     0     0  0.000000000E+00  0.000000000E+00  1.235407275E+03  1.238803075E+03  9.166199766E+01  0.00000E+00  9.000E+00
      11     1     3     3     0     0 -3.712102024E+01 -2.258363892E+01  4.206965919E+02  4.229345261E+02  5.109989100E-04  0.00000E+00  9.000E+00
     -11     1     3     3     0     0  3.712102024E+01  2.258363892E+01  8.147106836E+02  8.158685488E+02  5.109989100E-04  0.00000E+00  9.000E+00
#rwgt            1           7   1469.5674747289943         54217137       50253           0
#pdf   2 -2 0.30927629E+00 0.42447491E-03 0.91661998E+02 0.35525934E+00 0.21304778E+01
</event>
<event>
      5  10011  2.10784E+03  1.00000E+01 -1.00000E+00  1.87273E-01
      -2    -1     0     0     0   501  0.000000000E+00  0.000000000E+00  1.853439003E+01  1.853439003E+01  0.000000000E+00  0.00000E+00  9.000E+00
       2    -1     0     0   501     0  0.000000000E+00  0.000000000E+00 -8.004090554E+00  8.004090554E+00  0.000000000E+00  0.00000E+00  9.000E+00
      23     2     1     2     0     0  0.000000000E+00  0.000000000E+00  1.053029948E+01  2.653848059E+01  2.435987982E+01  0.00000E+00  9.000E+00
      11     1     3     3     0     0  1.125646648E+01 -4.583945518E+00  6.130095657E+00  1.361244531E+01  5.109989100E-04  0.00000E+00  9.000E+00
     -11     1     3     3     0     0 -1.125646648E+01  4.583945518E+00  4.400203822E+00  1.292603528E+01  5.109989100E-04  0.00000E+00  9.000E+00
#rwgt            1           4   5718.7294002141280         54217137       50386           0
#pdf  -2  2 0.46335975E-02 0.20010226E-02 0.24359880E+02 0.68981025E+00 0.10307111E+01
</event>
<event>
      5  10011  2.10784E+03  1.00000E+01 -1.00000E+00  1.68576E-01
      -2    -1     0     0     0   501  0.000000000E+00  0.000000000E+00  3.909485917E+01  3.909485917E+01  0.000000000E+00  0.00000E+00  9.000E+00
       2    -1     0     0   501     0  0.000000000E+00  0.000000000E+00 -3.911893917E+00  3.911893917E+00  0.000000000E+00  0.00000E+00  9.000E+00
      23     2     1     2     0     0  0.000000000E+00  0.000000000E+00  3.518296526E+01  4.300675309E+01  2.473337355E+01  0.00000E+00  9.000E+00
      11     1     3     3     0     0  1.111366212E+01  1.888720888E+00  2.643283623E+01  2.873631124E+01  5.109989100E-04  0.00000E+00  9.000E+00
     -11     1     3     3     0     0 -1.111366212E+01 -1.888720888E+00  8.750129028E+00  1.427044185E+01  5.109989100E-04  0.00000E+00  9.000E+00
#rwgt            1           4   24158.050179898964         54217137       50577           0
#pdf  -2  2 0.97737148E-02 0.97797348E-03 0.24733374E+02 0.51207166E+00 0.12652154E+01
</event>
<event>
      5  10011  2.10784E+03  1.00000E+01 -1.00000E+00  1.94306E-01
      -2    -1     0     0     0   501  0.000000000E+00  0.000000000E+00  3.240257778E+02  3.240257778E+02  0.000000000E+00  0.00000E+00  9.000E+00
       2    -1     0     0   501     0  0.000000000E+00  0.000000000E+00 -6.385693993E+00  6.385693993E+00  0.000000000E+00  0.00000E+00  9.000E+00
      23     2     1     2     0     0  0.000000000E+00  0.000000000E+00  3.176400838E+02  3.304114717E+02  9.097536947E+01  0.00000E+00  9.000E+00
      11     1     3     3     0     0 -9.829008524E+00 -3.857511992E+01  7.887909365E+01  8.835474351E+01  5.109989100E-04  0.00000E+00  9.000E+00
     -11     1     3     3     0     0  9.829008524E+00  3.857511992E+01  2.387609901E+02  2.420567283E+02  5.109989100E-04  0.00000E+00  9.000E+00
#rwgt            1           4   434.03919461917349         54217137       50658           0
#pdf  -2  2 0.81006444E-01 0.15964235E-02 0.90975369E+02 0.14229327E+00 0.13686724E+01
</event>
<event>
      5  10011  2.10784E+03  1.00000E+01 -1.00000E+00  1.73108E-01
      -2    -1     0     0     0   501  0.000000000E+00  0.000000000E+00  2.712472457E-01  2.712472457E-01  0.000000000E+00  0.00000E+00  9.000E+00
       2    -1     0     0   501     0  0.000000000E+00  0.000000000E+00 -4.674832590E+02  4.674832590E+02  0.000000000E+00  0.00000E+00  9.000E+00
      23     2     1     2     0     0  0.000000000E+00  0.000000000E+00 -4.672120118E+02  4.677545063E+02  2.252141616E+01  0.00000E+00  9.000E+00
      11     1     3     3     0     0  4.056487548E+00  1.372982406E+00 -1.730235988E+01  1.782447277E+01  5.109989100E-04  0.00000E+00  9.000E+00
     -11     1     3     3     0     0 -4.056487548E+00 -1.372982406E+00 -4.499096519E+02  4.499300335E+02  5.109989100E-04  0.00000E+00  9.000E+00
#rwgt            1           4   175476.28927306857         54217137       50841           0
#pdf  -2  2 0.67811811E-04 0.11687081E+00 0.22521416E+02 0.26566255E+01 0.64228650E+00
</event>
<event>
      5  10011  2.10784E+03  1.00000E+01 -1.00000E+00  1.93814E-01
       1    -1     0     0   501     0  0.000000000E+00  0.000000000E+00  1.150346227E+03  1.150346227E+03  0.000000000E+00  0.00000E+00  9.000E+00
      -1    -1     0     0     0   501  0.000000000E+00  0.000000000E+00 -1.839113825E+00  1.839113825E+00  0.000000000E+00  0.00000E+00  9.000E+00
      23     2     1     2     0     0  0.000000000E+00  0.000000000E+00  1.148507113E+03  1.152185341E+03  9.199168767E+01  0.00000E+00  9.000E+00
      11     1     3     3     0     0 -2.473793158E+01 -1.304314970E+00  1.059655671E+03  1.059945191E+03  5.109989100E-04  0.00000E+00  9.000E+00
     -11     1     3     3     0     0  2.473793158E+01  1.304314970E+00  8.885144265E+01  9.224015047E+01  5.109989100E-04  0.00000E+00  9.000E+00
#rwgt            1           6   806.92606446450520         54217137       50948           0
#pdf   1 -1 0.28758656E+00 0.45977846E-03 0.91991688E+02 0.14700131E+00 0.20653108E+01
</event>
<event>
      6  10011  2.10784E+03  4.62342E+01 -1.00000E+00  1.41040E-01
      -2    -1     0     0     0   501  0.000000000E+00  0.000000000E+00  9.126312762E+00  9.126312762E+00  0.000000000E+00  0.00000E+00  9.000E+00
       2    -1     0     0   511     0  0.000000000E+00  0.000000000E+00 -1.498768932E+03  1.498768932E+03  0.000000000E+00  0.00000E+00  9.000E+00
      23     2     1     2     0     0  1.501648856E+01  4.372761720E+01 -2.800643020E+02  2.974336365E+02  8.884343227E+01  0.00000E+00  9.000E+00
      11     1     3     3     0     0  1.903700739E+01  1.990814282E+00 -5.825207937E+00  2.000759955E+01  5.109989100E-04  0.00000E+00  9.000E+00
     -11     1     3     3     0     0 -4.020518829E+00  4.173680293E+01 -2.742390940E+02  2.774260370E+02  5.109989100E-04  0.00000E+00  9.000E+00
      21     1     1     2   511   501 -1.501648856E+01 -4.372761720E+01 -1.209578317E+03  1.210461608E+03  0.000000000E+00  0.00000E+00  9.000E+00
#rwgt            1           4   211.33262641335270         54217137       51037           0
#pdf  -2  2 0.19259797E-02 0.64035229E-01 0.88843432E+02 0.11791766E+01 0.65746896E+00
</event>
